,csid,donotuse,donotusebecause,key,link,mpC,name,smiles,source
7135,595477.0,,,7136.0,http://www.alfa.com/en/GP100W.pgm?DSSTK=H26079,108.0,ethyl 5-amino-3-methyl-1h-pyrazole-4-carboxylate,CCOC(=O)c1c(n[nH]c1N)C,Alfa Aesar
11313,2032063.0,,,11314.0,http://dx.doi.org/10.1021/ci0500132,54.0,"{[4,5-dimethyl-3-(1-methylethyl)cyclopenta-1,4-dien-1-yl]methyl}benzene",CC=1C(=CC(C=1C)C(C)C)Cc1ccccc1,Karthikeyan M.; Glen R.C.; Bender A. General melting point prediction based on a diverse compound dataset and artificial neural networks. J. Chem. Inf. Model.; 2005; 45(3); 581-2896
24834,159489.0,,,24835.0,http://www.srcinc.com/what-we-do/product.aspx?id=133,188.5,"1-(2-iodo),2-dibenzoyl-1-tert-butylhydrazine",O=C(c1ccccc1I)N(NC(=O)c2ccccc2)C(C)(C)C,PHYSPROP
24842,172109.0,,,24843.0,http://www.srcinc.com/what-we-do/product.aspx?id=133,217.5,1-phenoxysilatrane,O1CCN2CCO[Si]1(OCC2)Oc3ccccc3,PHYSPROP
10131,3179336.0,,,10132.0,http://dx.doi.org/10.1021/ci0500132,148.0,3-(benzyloxy)androstane,O(Cc1ccccc1)C1CCC2(C)C(CCC3C4CCCC4(C)CCC32)C1,Karthikeyan M.; Glen R.C.; Bender A. General melting point prediction based on a diverse compound dataset and artificial neural networks. J. Chem. Inf. Model.; 2005; 45(3); 581-1714
13519,66344.0,,,13520.0,http://de.wikipedia.org/wiki/Beilsteins_Handbuch_der_Organischen_Chemie,26.0,p-vinylaniline,C=Cc1ccc(N)cc1,Beilstein F. K.; Beilsteins Handbuch der Organischen Chemie. Springer; Berlin; 1972.
22691,38919.0,,,22692.0,http://www.srcinc.com/what-we-do/product.aspx?id=133,250.0,hexachlorodibenzo-p-dioxin,Clc2cc1Oc3c(Cl)c(Cl)c(Cl)c(Cl)c3Oc1c(Cl)c2,PHYSPROP
8269,4617.0,,,8270.0,http://www.alfa.com/en/GP100W.pgm?DSSTK=L03449,107.0,phenylbutazone,CCCCC1C(=O)N(N(C1=O)c2ccccc2)c3ccccc3,Alfa Aesar
23573,63457.0,,,23574.0,http://www.srcinc.com/what-we-do/product.aspx?id=133,13.5,cyclopentaneacetic acid,CC(=O)OC1CCCC1,PHYSPROP
28310,4330.0,,,28311.0,http://dx.doi.org/10.1016/j.chemosphere.2013.10.095,173.0,Nifedipine,CC1=C(C(C(=C(N1)C)C(=O)OC)C2=CC=CC=C2[N+](=O)[O-])C(=O)OC,Abraham M.H. and Acree Jr. W.E. The solubility of liquid and solid compounds in dry octan-1-ol. Chemosphere (2013)
13677,932.0,,,13678.0,http://www.amazon.com/dp/B002IYRJWI,-15.0,1-octanol,CCCCCCCCO,American Petroleum Institute. Research Project 44; Selected Values of Properties of Hydrocarbons and Related Compounds. Texas A & M University; College Station; TX; 1973.
4502,1414321.0,,,4503.0,http://www.alfa.com/en/GP100W.pgm?DSSTK=L10714,136.0,4-[3-(4-morpholinyl)propyl]-3-thiosemicarbazide,C1COCCN1CCCNC(=S)NN,Alfa Aesar
16044,6114.0,,,16045.0,http://msds.chem.ox.ac.uk/,-111.0,Oxirane,C1CO1,academic website
3380,110170.0,,,3381.0,http://www.alfa.com/en/GP100W.pgm?DSSTK=A16553,31.0,"3,5-bis(trifluoromethyl)benzyl chloride",c1c(cc(cc1C(F)(F)F)C(F)(F)F)CCl,Alfa Aesar
10723,2034562.0,,,10724.0,http://dx.doi.org/10.1021/ci0500132,171.0,"5-methyl-7-(trifluoromethyl)-3-{(E)-[3-(trifluoromethyl)phenyl]diazenyl}pyrazolo[1,5-a]pyrimidin-2-amine",FC(F)(F)C=1[nH0]2[nH0]c(N)c(N=Nc3cccc(c3)C(F)(F)F)c2N=C(C)C=1,Karthikeyan M.; Glen R.C.; Bender A. General melting point prediction based on a diverse compound dataset and artificial neural networks. J. Chem. Inf. Model.; 2005; 45(3); 581-2306
7345,6088.0,,,7346.0,http://www.alfa.com/en/GP100W.pgm?DSSTK=43681,-67.0,iodomethane,CI,Alfa Aesar
14279,13862559.0,,,14280.0,http://www.questia.com/library/book/physical_properties_of_chemical_compounds_by_robert_rickert_dreisbach.jsp,17.0,"1,2,4-trichlorobenzene",Clc1cc(Cl)c(Cl)cc1,Dreisbach R. R. Physical Properties of Chemical Compounds; Vol. I; American Chemical Society; Washington; 1955.
10099,3420927.0,,,10100.0,http://dx.doi.org/10.1021/ci0500132,260.0,"1-(hydroxymethyl)-1-methyl-2,3,4,4a,9,9a-hexahydro-1H-beta-carboline-3-carboxylic acid",O=C(O)C1NC(C)(CO)C2Nc3ccccc3C2C1,Karthikeyan M.; Glen R.C.; Bender A. General melting point prediction based on a diverse compound dataset and artificial neural networks. J. Chem. Inf. Model.; 2005; 45(3); 581-1682
12684,121599.0,,,12685.0,http://dx.doi.org/10.1021/ci0500132,14.0,Benzocyclobuten-1(2H)-one,O=C1Cc2ccccc21,Karthikeyan M.; Glen R.C.; Bender A. General melting point prediction based on a diverse compound dataset and artificial neural networks. J. Chem. Inf. Model.; 2005; 45(3); 581-4267
15445,6713.0,,,15446.0,http://msds.chem.ox.ac.uk/,116.5,4-Chloro-2-nitroaniline,Nc1ccc(Cl)cc1[N+]([O-])=O,academic website
6615,5744.0,,,6616.0,http://www.alfa.com/en/GP100W.pgm?DSSTK=B20841,151.0,chloramphenicol,c1cc(ccc1[C@H]([C@@H](CO)NC(=O)C(Cl)Cl)O)[N+](=O)[O-],Alfa Aesar
10404,2036218.0,,,10405.0,http://dx.doi.org/10.1021/ci0500132,122.0,"{2-[(tricyclo[3.3.1.1~3,7~]dec-1-ylcarbonyl)amino]ethoxy}acetic acid",O=C(O)COCCNC(=O)C12CC3CC(CC(C3)C2)C1,Karthikeyan M.; Glen R.C.; Bender A. General melting point prediction based on a diverse compound dataset and artificial neural networks. J. Chem. Inf. Model.; 2005; 45(3); 581-1987
12644,191030.0,,,12645.0,http://dx.doi.org/10.1021/ci0500132,97.0,"4,6-BIS(CHLOROMETHYL)-M-XYLENE",ClCc1cc(CCl)c(C)cc1C,Karthikeyan M.; Glen R.C.; Bender A. General melting point prediction based on a diverse compound dataset and artificial neural networks. J. Chem. Inf. Model.; 2005; 45(3); 581-4227
17394,30713.0,,,17395.0,http://www.srcinc.com/what-we-do/product.aspx?id=133,-101.2,"1,2-dichloro-1,2-difluoroethane",ClC(F)C(Cl)F,PHYSPROP
5788,2655545.0,,,5789.0,http://www.alfa.com/en/GP100W.pgm?DSSTK=L16992,38.0,5-bromoindoline,c1cc2c(cc1Br)CCN2,Alfa Aesar
27141,268684.0,,,27142.0,http://scripts.iucr.org/cgi-bin/paper?tk6057,105.35,(2-Chlorophenyl)(diphenyl)phosphine,Clc3ccccc3P(c1ccccc1)c2ccccc2,IUCr
14690,21171496.0,,,14691.0,http://www.amazon.com/dp/B003XEQTLE,21.0,"1,4-dichloro-2-iodobenzene",Clc1ccc(Cl)c(I)c1,Aldrich Chemical Company; Aldrich Catalog-Handbook of Fine Chemicals; Milwaukee; WI; 1984.
24845,175795.0,,,24846.0,http://www.srcinc.com/what-we-do/product.aspx?id=133,188.5,1-(4-methylphenoxy)silatrane,Cc1ccc(cc1)O[Si]23OCCN(CCO2)CCO3,PHYSPROP
17735,21998.0,,,17736.0,http://www.srcinc.com/what-we-do/product.aspx?id=133,-115.1,"2,3-dimethyl-2-hexene",C/C(C)=C(/C)CCC,PHYSPROP
16435,4563.0,,,16436.0,http://www.drugbank.ca/drugs/DB00299,276.0,Penciclovir,OCC(CO)CCn2cnc1c2NC(N)=NC1=O,DrugBank
19401,11094.0,,,19402.0,http://www.srcinc.com/what-we-do/product.aspx?id=133,-118.2,2-methylhexane,CC(C)CCCC,PHYSPROP
8326,69945.0,,,8327.0,http://www.alfa.com/en/GP100W.pgm?DSSTK=L02102,118.0,p-toluenesulfonylacetic acid,Cc1ccc(cc1)S(=O)(=O)CC(=O)O,Alfa Aesar
19462,10942.0,,,19463.0,http://www.srcinc.com/what-we-do/product.aspx?id=133,26.0,"benzenamine, 2-bromo-4-methyl-",Cc1cc(Br)c(N)cc1,PHYSPROP
1108,64012.0,,,1109.0,http://www.alfa.com/en/GP100W.pgm?DSSTK=A17750,91.0,"2,2':6',2''-terpyridine",c1ccnc(c1)c2cccc(n2)c3ccccn3,Alfa Aesar
20836,6955.0,,,20837.0,http://www.srcinc.com/what-we-do/product.aspx?id=133,9.5,"benzoxazole, 2-methyl-",Cc1nc2ccccc2o1,PHYSPROP
19431,11033.0,,,19432.0,http://www.srcinc.com/what-we-do/product.aspx?id=133,-42.9,butyl octanoate,O=C(CCCCCCC)OCCCC,PHYSPROP
13952,6483.0,,,13953.0,http://www.amazon.com/dp/B003XEQTLE,9.0,"3-nitro-1,2-dimethylbenzene",Cc1c(C)cccc1[N+](=O)[O-],Aldrich Chemical Company; Aldrich Catalog-Handbook of Fine Chemicals; Milwaukee; WI; 1984.
18471,14702.0,,,18472.0,http://www.srcinc.com/what-we-do/product.aspx?id=133,-106.0,"1-heptanol, 6-methyl-",CC(C)CCCCCO,PHYSPROP
15915,11231.0,,,15916.0,http://msds.chem.ox.ac.uk/,-108.0,Methyl nitrate,[O-][N+](=O)OC,academic website
14412,13882366.0,,,14413.0,http://www.amazon.com/dp/B003XEQTLE,-8.0,"a,a,a-trichlorotoluene",ClC(Cl)(Cl)c1ccccc1,Aldrich Chemical Company; Aldrich Catalog-Handbook of Fine Chemicals; Milwaukee; WI; 1984.
28063,2940.0,,,28064.0,http://dx.doi.org/10.1016/j.chemosphere.2013.10.095,210.0,Endrin,C1C2C3C(C1C4C2O4)C5(C(=C(C3(C5(Cl)Cl)Cl)Cl)Cl)Cl,Abraham M.H. and Acree Jr. W.E. The solubility of liquid and solid compounds in dry octan-1-ol. Chemosphere (2013)
17175,4488.0,,,17176.0,http://dx.doi.org/10.1021/ci700307p,150.5,p-aminosalicylic acid,OC(=O)c1ccc(N)cc1O,Hughes LD; Palmer DS; Nigsch F and Mitchell JBO. 2008 Why are some properties more difficult to predict than others? A study of QSPR models of solubility; melting point and LogP. J. Chem. Inf. Model. 2008. 48 (1). pp 220?323
7638,509413.0,,,7639.0,http://www.alfa.com/en/GP100W.pgm?DSSTK=B20808,51.0,methyl 6-methoxynicotinate,COc1ccc(cn1)C(=O)OC,Alfa Aesar
8394,60246.0,,,8395.0,http://www.alfa.com/en/GP100W.pgm?DSSTK=L05505,194.0,"resorcinol-o,o'-diacetic acid",c1cc(cc(c1)OCC(=O)O)OCC(=O)O,Alfa Aesar
9896,4644503.0,,,9897.0,http://dx.doi.org/10.1021/ci0500132,252.0,"N-{2-[(E)-2-(5-methyl-2,4-dinitrophenyl)ethenyl]phenyl}acetamide",O=[N+]([O-])c1cc([N+](=O)[O-])c(cc1C)C=Cc1ccccc1NC(=O)C,Karthikeyan M.; Glen R.C.; Bender A. General melting point prediction based on a diverse compound dataset and artificial neural networks. J. Chem. Inf. Model.; 2005; 45(3); 581-1479
4768,5381236.0,,,4769.0,http://www.alfa.com/en/GP100W.pgm?DSSTK=B25541,98.0,4-bromo-3-methoxyaniline,COc1cc(ccc1Br)N,Alfa Aesar
3021,9427205.0,,,3022.0,http://www.alfa.com/en/GP100W.pgm?DSSTK=L00194,91.0,2-phenyl-5-oxazolone,c1ccc(cc1)C2NCC(=O)O2,Alfa Aesar
3318,2039045.0,,,3319.0,http://www.alfa.com/en/GP100W.pgm?DSSTK=H26088,178.0,"3,4-difluorosalicylic acid",c1cc(c(c(c1C(=O)O)O)F)F,Alfa Aesar
27438,7364.0,,,27439.0,http://dx.doi.org/10.1080/10629360701430124,51.5,"1,2-diphenylethane",c1ccc(cc1)CCc2ccccc2,RAEVSKY OA; PERLOVICH GL and SCHAPER K-J. Physicochemical properties/descriptors governing the solubility and partitioning of chemicals in water-solvent-gas systems. Part 2. Solubility in 1-octanol. SAR and QSAR in Environmental Research Vol. 18 Nos. 5–6 July–September 2007 543–578
27328,4511547.0,,,27329.0,http://tinyurl.com/84582mh,169.0,(2E)-1-(4-Hydroxyphenyl)-3-(4-methoxyphenyl)-2-propen-1-one,OC1=CC=C(C=C1)C(\C=C\C2=CC=C(C=C2)OC)=O,Bioorganic and Medicinal Chemistry
485,21106032.0,,,486.0,http://www.alfa.com/en/GP100W.pgm?DSSTK=B21337,-38.0,"1,4-dichlorobutane",C(CCCl)CCl,Alfa Aesar
21744,3972.0,,,21745.0,http://www.srcinc.com/what-we-do/product.aspx?id=133,87.0,methoxychlor,COc1ccc(cc1)C(c2ccc(OC)cc2)C(Cl)(Cl)Cl,PHYSPROP
17098,2035.0,,,17099.0,http://dx.doi.org/10.1021/ci700307p,109.0,alprenolol,CC(C)NCC(O)COc1ccccc1CC=C,Hughes LD; Palmer DS; Nigsch F and Mitchell JBO. 2008 Why are some properties more difficult to predict than others? A study of QSPR models of solubility; melting point and LogP. J. Chem. Inf. Model. 2008. 48 (1). pp 220?246
3151,2016339.0,,,3152.0,http://www.alfa.com/en/GP100W.pgm?DSSTK=L19807,82.0,3-(boc-amino)-3-(3-methoxyphenyl)propionic acid,CC(C)(C)OC(=O)NC(CC(=O)O)c1cccc(c1)OC,Alfa Aesar
27067,389114.0,,,27068.0,http://scripts.iucr.org/cgi-bin/paper?ka1287,146.85,"(5beta)-Androstane-3,17-dione",O=C2[C@]1(CC[C@H]4[C@H]([C@@H]1CC2)CC[C@@H]3CC(=O)CC[C@@]34C)C,IUCr
2754,3293258.0,,,2755.0,http://www.alfa.com/en/GP100W.pgm?DSSTK=H26704,115.0,"2'-iodo-1,1':3',1''-terphenyl",c1ccc(cc1)c2cccc(c2I)c3ccccc3,Alfa Aesar
7270,28958.0,,,7271.0,http://www.alfa.com/en/GP100W.pgm?DSSTK=B21768,4.0,glycidyl phenyl ether,c1ccc(cc1)OCC2CO2,Alfa Aesar
18836,12641.0,,,18837.0,http://www.srcinc.com/what-we-do/product.aspx?id=133,35.0,"1,3-dithiolane-2-thione",S=C1SCCS1,PHYSPROP
7833,12540.0,,,7834.0,http://www.alfa.com/en/GP100W.pgm?DSSTK=B25081,239.0,"N,N'-dibenzoylhydrazine",c1ccc(cc1)C(=O)NNC(=O)c2ccccc2,Alfa Aesar
17085,7662.0,,,17086.0,http://dx.doi.org/10.1021/ci700307p,63.4,"1,3,5-trichlorobenzene",Clc1cc(Cl)cc(Cl)c1,Hughes LD; Palmer DS; Nigsch F and Mitchell JBO. 2008 Why are some properties more difficult to predict than others? A study of QSPR models of solubility; melting point and LogP. J. Chem. Inf. Model. 2008. 48 (1). pp 220?233
2029,14991.0,,,2030.0,http://www.alfa.com/en/GP100W.pgm?DSSTK=A10444,43.0,2-amino-6-methylpyridine,Cc1cccc(n1)N,Alfa Aesar
26179,10442764.0,,,26180.0,http://www.srcinc.com/what-we-do/product.aspx?id=133,195.5,"1-(2-bromo),2-dibenzoyl-1-tert-butylhydrazine",O=C(c1ccccc1Br)N(NC(=O)c2ccccc2)C(C)(C)C,PHYSPROP
7446,3086623.0,,,7447.0,http://www.alfa.com/en/GP100W.pgm?DSSTK=L13108,121.0,mesitylglyoxylic acid,Cc1cc(c(c(c1)C)C(=O)C(=O)O)C,Alfa Aesar
21592,4780.0,,,21593.0,http://www.srcinc.com/what-we-do/product.aspx?id=133,186.0,propyliodone,O=C(OCCC)CN1C=C(I)C(=O)C(I)=C1,PHYSPROP
17977,18370.0,,,17978.0,http://www.srcinc.com/what-we-do/product.aspx?id=133,-2.0,cyclobutanecarboxylic acid,O=C(O)C1CCC1,PHYSPROP
704,13862559.0,,,705.0,http://www.alfa.com/en/GP100W.pgm?DSSTK=19390,17.0,"1,2,4-trichlorobenzene",c1cc(c(cc1Cl)Cl)Cl,Alfa Aesar
13101,654.0,,,13102.0,http://www.questia.com/library/book/physical_properties_of_chemical_compounds_by_robert_rickert_dreisbach.jsp,-92.0,dimethylamine,CNC,Dreisbach R. R. Physical Properties of Chemical Compounds; Vol. III; American Chemical Society; Washington; 1961.
4899,2018177.0,,,4900.0,http://www.alfa.com/en/GP100W.pgm?DSSTK=H26148,60.0,4-chloro-3-fluoroaniline,c1cc(c(cc1N)F)Cl,Alfa Aesar
84,932.0,,,85.0,http://www.alfa.com/en/GP100W.pgm?DSSTK=A15977,-16.0,1-octanol,CCCCCCCCO,Alfa Aesar
26240,10443969.0,,,26241.0,http://www.srcinc.com/what-we-do/product.aspx?id=133,125.0,n(24-no2-6cf3 ph)-2(35cn-6me)pyridinamin,FC(F)(F)c2cc(cc(c2Nc1nc(C)c(cc1C#N)C#N)[N+]([O-])=O)[N+]([O-])=O,PHYSPROP
25210,528072.0,,,25211.0,http://www.srcinc.com/what-we-do/product.aspx?id=133,67.5,"2,4-dichloroquinoline",Clc1cc(Cl)nc2ccccc12,PHYSPROP
7671,2015445.0,,,7672.0,http://www.alfa.com/en/GP100W.pgm?DSSTK=L16021,70.0,methyl indole-4-carboxylate,COC(=O)c1cccc2c1cc[nH]2,Alfa Aesar
22510,124.0,,,22511.0,http://www.srcinc.com/what-we-do/product.aspx?id=133,152.0,p-hydroxyphenylacetic acid,Oc1ccc(CC(=O)O)cc1,PHYSPROP
9347,5511290.0,,,9348.0,http://dx.doi.org/10.1021/ci0500132,178.0,"4-{[(1E)-(2,6-dimethoxyphenyl)methylidene]amino}-5-(trifluoromethyl)-2,4-dihydro-3H-1,2,4-triazole-3-thione",Sc1[nH0][nH0]c([nH0]1N=Cc1c(OC)cccc1OC)C(F)(F)F,Karthikeyan M.; Glen R.C.; Bender A. General melting point prediction based on a diverse compound dataset and artificial neural networks. J. Chem. Inf. Model.; 2005; 45(3); 581-930
16784,4054.0,,,16785.0,http://www.drugbank.ca/drugs/DB00805,122.0,Minaprine,Cc2cc(nnc2NCCN1CCOCC1)c3ccccc3,DrugBank
22579,34686.0,,,22580.0,http://www.srcinc.com/what-we-do/product.aspx?id=133,5.5,"acetamide, 2,2-dichloro-n,n-di-2-propenyl-",ClC(Cl)C(=O)N(CC=C)CC=C,PHYSPROP
9423,4833379.0,,,9424.0,http://dx.doi.org/10.1021/ci0500132,187.0,"(6Z)-6-(hydroxyimino)-3,7-dimethyloctanoic acid",O=C(O)CC(C)CCC(=NO)C(C)C,Karthikeyan M.; Glen R.C.; Bender A. General melting point prediction based on a diverse compound dataset and artificial neural networks. J. Chem. Inf. Model.; 2005; 45(3); 581-1006
5197,5381040.0,,,5198.0,http://www.alfa.com/en/GP100W.pgm?DSSTK=H32602,78.0,4-hydroxy-3-(trifluoromethoxy)benzaldehyde,c1cc(c(cc1C=O)OC(F)(F)F)O,Alfa Aesar
14378,6393.0,,,14379.0,http://www.amazon.com/dp/B003XEQTLE,79.0,methyl_p-toluenesulfonate,COS(=O)(=O)c1ccc(C)cc1,Aldrich Chemical Company; Aldrich Catalog-Handbook of Fine Chemicals; Milwaukee; WI; 1984.
11432,2031658.0,,,11433.0,http://dx.doi.org/10.1021/ci0500132,108.0,"3-cyclohexyl-1-phenyl-1H-1,2,4-triazol-5-yl acetate",O=C(Oc1[nH0]c([nH0][nH0]1c1ccccc1)C1CCCCC1)C,Karthikeyan M.; Glen R.C.; Bender A. General melting point prediction based on a diverse compound dataset and artificial neural networks. J. Chem. Inf. Model.; 2005; 45(3); 581-3015
6429,10778469.0,,,6430.0,http://www.alfa.com/en/GP100W.pgm?DSSTK=A15579,194.0,benzo[b]furan-2-carboxylic acid,c1ccc2c(c1)cc(o2)C(=O)O,Alfa Aesar
9271,7855601.0,,,9272.0,http://dx.doi.org/10.1021/ci0500132,151.0,"(4-chlorophenyl){(5E)-5-[(2E)-(4-fluorobenzylidene)hydrazinylidene]-4-phenyl-4,5-dihydro-1,3,4-thiadiazol-2-yl}methanone",Clc1ccc(cc1)C(=O)C=1SC(=NN=Cc2ccc(F)cc2)N(N=1)c1ccccc1,Karthikeyan M.; Glen R.C.; Bender A. General melting point prediction based on a diverse compound dataset and artificial neural networks. J. Chem. Inf. Model.; 2005; 45(3); 581-854
16754,4617.0,,,16755.0,http://www.drugbank.ca/drugs/DB00812,105.0,Phenylbutazone,O=C3C(CCCC)C(=O)N(c1ccccc1)N3c2ccccc2,DrugBank
10241,2064255.0,,,10242.0,http://dx.doi.org/10.1021/ci0500132,147.0,"5-pyrimidinecarboxylic acid, 1,2,3,4-tetrahydro-1,6-dimethyl-4-phenyl-2-thioxo-, ethyl ester",S=C1NC(c2ccccc2)C(=C(N1C)C)C(=O)OCC,Karthikeyan M.; Glen R.C.; Bender A. General melting point prediction based on a diverse compound dataset and artificial neural networks. J. Chem. Inf. Model.; 2005; 45(3); 581-1824
27959,7135.0,,,27960.0,http://www.thegoodscentscompany.com/data/rw1036731.html,30.0,cyclohexanecarboxylic acid,C1(CCCCC1)C(=O)O,GoodScents
10025,4290854.0,,,10026.0,http://dx.doi.org/10.1021/ci0500132,164.0,"1,5-cyclocholestan-2-one",O=C1CCC23CCC4C(CCC5(C)C4CCC5C(C)CCCC(C)C)C3(C)C12,Karthikeyan M.; Glen R.C.; Bender A. General melting point prediction based on a diverse compound dataset and artificial neural networks. J. Chem. Inf. Model.; 2005; 45(3); 581-1608
672,7551.0,,,673.0,http://www.alfa.com/en/GP100W.pgm?DSSTK=A12766,10.0,"1,2-dibromoethane",C(CBr)Br,Alfa Aesar
5581,81044.0,,,5582.0,http://www.alfa.com/en/GP100W.pgm?DSSTK=L06386,40.0,4-tert-butylbenzophenone,CC(C)(C)c1ccc(cc1)C(=O)c2ccccc2,Alfa Aesar
16870,5138.0,,,16871.0,http://www.drugbank.ca/drugs/DB01015,167.0,Sulfamethoxazole,Cc2cc(NS(=O)(=O)c1ccc(N)cc1)no2,DrugBank
18865,12493.0,x,all sources on Google -59C JCB,18866.0,http://www.srcinc.com/what-we-do/product.aspx?id=133,28.0,"piperidine, 2,2,6,6-tetramethyl-",CC1(C)CCCC(C)(C)N1,PHYSPROP
719,7013.0,,,720.0,http://www.alfa.com/en/GP100W.pgm?DSSTK=L04312,-14.0,"1,2,3-trichloropropane",C(C(CCl)Cl)Cl,Alfa Aesar
3069,62674.0,,,3070.0,http://www.alfa.com/en/GP100W.pgm?DSSTK=A15768,0.0,2-thiophenemethanol,c1cc(sc1)CO,Alfa Aesar
12580,239873.0,,,12581.0,http://dx.doi.org/10.1021/ci0500132,83.0,"1,4,5,8-tetrahydronaphthalene-4a,8a-diol",OC12CC=CCC2(O)CC=CC1,Karthikeyan M.; Glen R.C.; Bender A. General melting point prediction based on a diverse compound dataset and artificial neural networks. J. Chem. Inf. Model.; 2005; 45(3); 581-4163
14686,6106.0,,,14687.0,http://www.questia.com/library/book/physical_properties_of_chemical_compounds_by_robert_rickert_dreisbach.jsp,6.0,diiodomethane,ICI,Dreisbach R. R. Physical Properties of Chemical Compounds; Vol. III; American Chemical Society; Washington; 1961.
5837,2006030.0,,,5838.0,http://www.alfa.com/en/GP100W.pgm?DSSTK=A16747,199.0,5-chloro-2-mercaptobenzothiazole,c1cc2c(cc1Cl)nc(s2)S,Alfa Aesar
17703,22779.0,,,17704.0,http://www.srcinc.com/what-we-do/product.aspx?id=133,92.0,4-bromo-2-nitrophenol,Oc1ccc(Br)cc1[N+]([O-])=O,PHYSPROP
9443,4799845.0,,,9444.0,http://dx.doi.org/10.1021/ci0500132,169.0,"(5Z)-3-(morpholin-4-ylmethyl)-5-[(4-nitrophenyl)methylidene]-2-thioxo-1,3-thiazolidin-4-one",S=C1SC(=Cc2ccc([N+](=O)[O-])cc2)C(=O)N1CN1CCOCC1,Karthikeyan M.; Glen R.C.; Bender A. General melting point prediction based on a diverse compound dataset and artificial neural networks. J. Chem. Inf. Model.; 2005; 45(3); 581-1026
11474,2031560.0,,,11475.0,http://dx.doi.org/10.1021/ci0500132,176.0,"N,N'-{[2-(acetylamino)benzene-1,4-diyl]diethane-2,1-diyl}dibenzamide",O=C(Nc1cc(ccc1CCNC(=O)c1ccccc1)CCNC(=O)c1ccccc1)C,Karthikeyan M.; Glen R.C.; Bender A. General melting point prediction based on a diverse compound dataset and artificial neural networks. J. Chem. Inf. Model.; 2005; 45(3); 581-3057
16586,3949.0,,,16587.0,http://www.drugbank.ca/drugs/DB00331,224.5,Metformin,N=C(N)NC(=N)N(C)C,DrugBank
11639,2030820.0,,,11640.0,http://dx.doi.org/10.1021/ci0500132,156.0,"2-(1,2-dihydroacenaphthylen-5-yl)-2-oxo-1-phenylethyl benzoate",O=C(OC(c1ccccc1)C(=O)c1ccc2CCc3cccc1c32)c1ccccc1,Karthikeyan M.; Glen R.C.; Bender A. General melting point prediction based on a diverse compound dataset and artificial neural networks. J. Chem. Inf. Model.; 2005; 45(3); 581-3222
25147,457729.0,,,25148.0,http://www.srcinc.com/what-we-do/product.aspx?id=133,166.0,1-(3-methylphenoxy)silatrane,Cc1cc(ccc1)O[Si]23OCCN(CCO2)CCO3,PHYSPROP