,csid,donotuse,donotusebecause,key,link,mpC,name,smiles,source
4752,5509972.0,,,4753.0,http://www.alfa.com/en/GP100W.pgm?DSSTK=H26153,74.0,"4-bromo-3,5-difluorophenol",c1c(cc(c(c1F)Br)F)O,Alfa Aesar
16800,4575.0,,,16801.0,http://www.drugbank.ca/drugs/DB00312,129.5,Pentobarbital,O=C1NC(=O)NC(=O)C1(CC)C(C)CCC,DrugBank
26617,13870615.0,,,26618.0,http://www.srcinc.com/what-we-do/product.aspx?id=133,-146.0,trifluoroacetyl chloride,FC(F)(F)C(Cl)=O,PHYSPROP
18847,12591.0,,,18848.0,http://www.srcinc.com/what-we-do/product.aspx?id=133,-54.0,"3-buten-2-one, 3-methyl-",C=C(C)C(C)=O,PHYSPROP
7326,312357.0,,,7327.0,http://www.alfa.com/en/GP100W.pgm?DSSTK=L05455,36.0,indole-3-acetonitrile,c1ccc2c(c1)c(c[nH]2)CC#N,Alfa Aesar
15174,7045.0,,,15175.0,http://msds.chem.ox.ac.uk/,176.5,"2,4-Dinitroaniline",O=[N+]([O-])c1cc(ccc1N)[N+]([O-])=O,academic website
14418,61759.0,,,14419.0,http://de.wikipedia.org/wiki/Beilsteins_Handbuch_der_Organischen_Chemie,52.0,methyl_2-acetoxybenzoate,O=C(C)Oc1ccccc1C(=O)OC,Beilstein F. K.; Beilsteins Handbuch der Organischen Chemie. Springer; Berlin; 1972.
12810,62536.0,,,12811.0,http://dx.doi.org/10.1021/ci0500132,96.0,p-Xylylene dicyanide,N#CCc1ccc(cc1)CC#N,Karthikeyan M.; Glen R.C.; Bender A. General melting point prediction based on a diverse compound dataset and artificial neural networks. J. Chem. Inf. Model.; 2005; 45(3); 581-4393
14358,68709.0,,,14359.0,http://de.wikipedia.org/wiki/Beilsteins_Handbuch_der_Organischen_Chemie,50.0,o-phenylbenzyl_alcohol,OCc2ccccc2c1ccccc1,Beilstein F. K.; Beilsteins Handbuch der Organischen Chemie. Springer; Berlin; 1972.
2655,121416.0,,,2656.0,http://www.alfa.com/en/GP100W.pgm?DSSTK=A14181,30.0,2-fluorobenzenesulfonyl chloride,c1ccc(c(c1)F)S(=O)(=O)Cl,Alfa Aesar
18599,13840.0,,,18600.0,http://www.srcinc.com/what-we-do/product.aspx?id=133,-50.9,cyclobutanone,O=C1CCC1,PHYSPROP
21379,5828.0,,,21380.0,http://www.srcinc.com/what-we-do/product.aspx?id=133,127.0,p-phenylazoaniline,Nc2ccc(/N=N/c1ccccc1)cc2,PHYSPROP
12189,1468105.0,,,12190.0,http://dx.doi.org/10.1021/ci0500132,109.0,"Propanamide, 3,3,3-trifluoro-N-2-pyridinyl-2-(trifluoromethyl)-",FC(F)(F)C(C(=O)Nc1[nH0]cccc1)C(F)(F)F,Karthikeyan M.; Glen R.C.; Bender A. General melting point prediction based on a diverse compound dataset and artificial neural networks. J. Chem. Inf. Model.; 2005; 45(3); 581-3772
14748,5770.0,,,14749.0,http://msds.chem.ox.ac.uk/,144.0,"(17beta)-17-Ethynylestra-1(10),2,4-triene-3,17-diol",Oc3cc4CC[C@@H]2[C@H](CC[C@@]1(C)[C@H]2CC[C@@]1(O)C#C)c4cc3,academic website
27320,553827.0,,,27321.0,http://tinyurl.com/6sa8xpl,83.0,(2E)-1-(2-Hydroxyphenyl)-3-phenyl-2-propen-1-one,OC1=C(C=CC=C1)C(\C=C\C2=CC=CC=C2)=O,Biological & Pharmaceutical Bulletin;
28276,204209.0,,,28277.0,http://www.journalarchive.jst.go.jp/jnlpdf.php?cdjournal=bcsj1926&cdvol=54&noissue=8&startpage=2395&lang=en&from=jnlabstract,100.0,N-(4-Dimethylaminobenzylidene)aniline,N(=C/c1ccc(N(C)C)cc1)\c2ccccc2,Journal of the Chemical Society of Japan
9336,5653468.0,,,9337.0,http://dx.doi.org/10.1021/ci0500132,250.0,"4-{[(1E)-(2-chlorophenyl)methylidene]amino}-5-[2-(2-methyl-1H-benzimidazol-1-yl)ethyl]-2,4-dihydro-3H-1,2,4-triazole-3-thione",Clc1ccccc1C=N[nH0]1c(S)[nH0][nH0]c1CC[nH0]1c2ccccc2[nH0]c1C,Karthikeyan M.; Glen R.C.; Bender A. General melting point prediction based on a diverse compound dataset and artificial neural networks. J. Chem. Inf. Model.; 2005; 45(3); 581-919
25558,4436353.0,,,25559.0,http://www.srcinc.com/what-we-do/product.aspx?id=133,-8.8,diethyl maleate,O=C(C=C/C(=O)OCC)OCC,PHYSPROP
18778,12961.0,,,18779.0,http://www.srcinc.com/what-we-do/product.aspx?id=133,-5.9,"butanedioic acid, dipropyl ester",O=C(CCC(=O)OCCC)OCCC,PHYSPROP
23633,64013.0,,,23634.0,http://www.srcinc.com/what-we-do/product.aspx?id=133,180.5,etidin,CC=1NC(C)=C(CC=1C(=O)OCC)C(=O)OCC,PHYSPROP
17058,9494.0,,,17059.0,http://www.drugbank.ca/drugs/DB00324,297.0,Fluorometholone,CC(=O)[C@@]4(O)CC[C@@H]3[C@]4(C)C[C@H](O)[C@@]2(F)[C@H]3C[C@H](C)C1=CC(=O)C=C[C@@]12C,DrugBank
2923,6983.0,,,2924.0,http://www.alfa.com/en/GP100W.pgm?DSSTK=B21241,129.0,2-methylhydroquinone,Cc1cc(ccc1O)O,Alfa Aesar
11440,2031626.0,,,11441.0,http://dx.doi.org/10.1021/ci0500132,139.0,1-(5-bromonaphthalen-1-yl)methanamine,Brc1cccc2c(cccc12)CN,Karthikeyan M.; Glen R.C.; Bender A. General melting point prediction based on a diverse compound dataset and artificial neural networks. J. Chem. Inf. Model.; 2005; 45(3); 581-3023
3683,151517.0,,,3684.0,http://www.alfa.com/en/GP100W.pgm?DSSTK=A15198,31.0,3-bromo-4-fluorobenzaldehyde,c1cc(c(cc1C=O)Br)F,Alfa Aesar
9134,10483962.0,,,9135.0,http://dx.doi.org/10.1021/ci0500132,185.0,"{5-imino-4-[3-(trifluoromethyl)phenyl]-4,5-dihydro-1,3,4-thiadiazol-2-yl}(thiophen-2-yl)methanone",s1cccc1C(=O)C=1SC(=N)N(N=1)c1cccc(c1)C(F)(F)F,Karthikeyan M.; Glen R.C.; Bender A. General melting point prediction based on a diverse compound dataset and artificial neural networks. J. Chem. Inf. Model.; 2005; 45(3); 581-715
27145,21136893.0,,,27146.0,http://scripts.iucr.org/cgi-bin/paper?ha1208,108.35,Ethyl (6-chloro-7H-purin-7-yl)acetate,O=C(OCC)Cn1c2c(Cl)ncnc2nc1,IUCr
27125,21181472.0,,,27126.0,http://scripts.iucr.org/cgi-bin/paper?gg1186,69.85,"Methyl (2S)-2-[(4-methyl-2-thioxo-1,3-thiazol-3(2H)-yl)oxy]propanoate",S=C1SC=C(N1O[C@H](C(=O)OC)C)C,IUCr
13457,11064.0,,,13458.0,http://www.amazon.com/dp/B002IYRJWI,-121.0,"2,2-dimethylhexane",CC(C)(C)CCCC,American Petroleum Institute. Research Project 44; Selected Values of Properties of Hydrocarbons and Related Compounds. Texas A & M University; College Station; TX; 1973.
16064,63421.0,,,16065.0,http://msds.chem.ox.ac.uk/,-72.0,"Pentane-1,5-dithiol",SCCCCCS,academic website
19898,9510.0,,,19899.0,http://www.srcinc.com/what-we-do/product.aspx?id=133,-119.6,hcfc 226,FC(F)(F)C(Cl)C(F)(F)F,PHYSPROP
16515,10257122.0,,,16516.0,http://www.drugbank.ca/drugs/DB00759,165.0,Tetracycline,NC(=O)C1=C(O)[C@@H](N(C)C)[C@@H]2C[C@H]4C(=C(O)[C@]2(O)C1=O)C(=O)c3c(O)cccc3[C@@]4(C)O,DrugBank
16939,5136.0,,,16940.0,http://www.drugbank.ca/drugs/DB01582,198.5,Sulfamethazine,O=S(=O)(Nc1nc(C)cc(C)n1)c2ccc(N)cc2,DrugBank
5493,85641.0,,,5494.0,http://www.alfa.com/en/GP100W.pgm?DSSTK=L10399,94.0,4-nitrophenyl chloroacetate,c1cc(ccc1[N+](=O)[O-])OC(=O)CCl,Alfa Aesar
27228,21174903.0,,,27229.0,http://scripts.iucr.org/cgi-bin/paper?ac6043,208.85,"(13aS)-10-Hydroxy-9-methoxy-5,6,13,13a-tetrahydro-8H-[1,3]dioxolo[4,5-g]isoquinolino[3,2-a]isoquinolin-8-one",O=C4N3[C@H](c2cc1OCOc1cc2CC3)Cc5ccc(O)c(OC)c45,IUCr
3664,599774.0,,,3665.0,http://www.alfa.com/en/GP100W.pgm?DSSTK=L00873,36.0,"3-bromo-2,4,6-trimethylaniline",Cc1cc(c(c(c1N)C)Br)C,Alfa Aesar
18049,17440.0,,,18050.0,http://www.srcinc.com/what-we-do/product.aspx?id=133,228.0,"benzoic acid, 3,5-dibromo-2-hydroxy-",Oc1c(cc(Br)cc1Br)C(=O)O,PHYSPROP
1426,2019008.0,,,1427.0,http://www.alfa.com/en/GP100W.pgm?DSSTK=L19887,84.0,"2,4-dibromobenzenesulfonyl chloride",c1cc(c(cc1Br)Br)S(=O)(=O)Cl,Alfa Aesar
19280,11385.0,,,19281.0,http://www.srcinc.com/what-we-do/product.aspx?id=133,104.0,"benzene, 1-methyl-2,4,5-trinitro-",O=[N+]([O-])c1cc(c(C)cc1[N+]([O-])=O)[N+]([O-])=O,PHYSPROP
6919,5978.0,,,6920.0,http://www.alfa.com/en/GP100W.pgm?DSSTK=B21747,110.0,dimethyl sulfone,CS(=O)(=O)C,Alfa Aesar
16072,16353.0,,,16073.0,http://msds.chem.ox.ac.uk/,111.0,Phenanthrene-9-carbonitrile,N#Cc2cc3ccccc3c1ccccc12,academic website
15141,12260.0,,,15142.0,http://msds.chem.ox.ac.uk/,173.0,"2,3,5-Trimethylbenzene-1,4-diol",Oc1cc(C)c(O)c(C)c1C,academic website
15346,11366.0,,,15347.0,http://msds.chem.ox.ac.uk/,101.0,"3,4,5-Trichlorophenol",Oc1cc(Cl)c(Cl)c(Cl)c1,academic website
7626,521295.0,,,7627.0,http://www.alfa.com/en/GP100W.pgm?DSSTK=B20524,64.0,methyl 5-bromo-2-furoate,COC(=O)c1ccc(o1)Br,Alfa Aesar
19589,10534.0,,,19590.0,http://www.srcinc.com/what-we-do/product.aspx?id=133,-79.5,cycloheptatriene,C1=CC=CC=CC1,PHYSPROP
18073,17073.0,x,metal,18074.0,http://www.srcinc.com/what-we-do/product.aspx?id=133,360.0,ioxynil-sodium,Ic1cc(cc(I)c1O[Na])C#N,PHYSPROP
10388,2036235.0,,,10389.0,http://dx.doi.org/10.1021/ci0500132,115.0,5-tert-butyl-6-chloro-N-(2-methylphenyl)pyrazine-2-carboxamide,Clc1[nH0]c(c[nH0]c1C(C)(C)C)C(=O)Nc1ccccc1C,Karthikeyan M.; Glen R.C.; Bender A. General melting point prediction based on a diverse compound dataset and artificial neural networks. J. Chem. Inf. Model.; 2005; 45(3); 581-1971
15578,582.0,,,15579.0,http://msds.chem.ox.ac.uk/,264.0,Alanine,CC(N)C(=O)O,academic website
5522,127592.0,,,5523.0,http://www.alfa.com/en/GP100W.pgm?DSSTK=A19929,42.0,4-n-pentylbenzenesulfonyl chloride,CCCCCc1ccc(cc1)S(=O)(=O)Cl,Alfa Aesar
17928,18941.0,,,17929.0,http://www.srcinc.com/what-we-do/product.aspx?id=133,105.0,dipropetryne,CCSc1nc(nc(NC(C)C)n1)NC(C)C,PHYSPROP
23960,69290.0,,,23961.0,http://www.srcinc.com/what-we-do/product.aspx?id=133,51.0,"benzene, 1-isocyanato-3-nitro-",O=C=Nc1cccc(c1)[N+]([O-])=O,PHYSPROP
26134,10441490.0,,,26135.0,http://www.srcinc.com/what-we-do/product.aspx?id=133,169.0,"benzenesulfonamide, 4-[(3-hydroxypropyl)sulfonyl",O=S(=O)(CCCO)c1ccc(cc1[N+]([O-])=O)S(N)(=O)=O,PHYSPROP
20288,8057.0,,,20289.0,http://www.srcinc.com/what-we-do/product.aspx?id=133,132.0,"1,3-dichloro-5,5-dimethylhydantoin",O=C1N(Cl)C(=O)N(Cl)C1(C)C,PHYSPROP
21214,6247.0,,,21215.0,http://www.srcinc.com/what-we-do/product.aspx?id=133,32.0,"3a,4,7,7a-tetrahydro-1h-4,7-methano-indene",C=2CC3C1C=CC(C1)C3C=2,PHYSPROP
26383,10778469.0,,,26384.0,http://www.srcinc.com/what-we-do/product.aspx?id=133,192.5,2-benzofurancarboxylic acid,O=C(O)c1cc2ccccc2o1,PHYSPROP
11051,2033720.0,,,11052.0,http://dx.doi.org/10.1021/ci0500132,188.0,"2,3-dimethyl-1H-indole-1-carboxamide",O=C(N)[nH0]1c2ccccc2c(C)c1C,Karthikeyan M.; Glen R.C.; Bender A. General melting point prediction based on a diverse compound dataset and artificial neural networks. J. Chem. Inf. Model.; 2005; 45(3); 581-2634
21732,4025.0,,,21733.0,http://www.srcinc.com/what-we-do/product.aspx?id=133,-62.1,metolachlor,ClCC(=O)N(C(C)COC)c1c(C)cccc1CC,PHYSPROP
25424,2017176.0,,,25425.0,http://www.srcinc.com/what-we-do/product.aspx?id=133,75.0,1-methyl-3-benzyl thiourea,CNC(=S)NCc1ccccc1,PHYSPROP
3471,79349.0,,,3472.0,http://www.alfa.com/en/GP100W.pgm?DSSTK=L05642,188.0,"3,5-dihydroxybenzonitrile",c1c(cc(cc1O)O)C#N,Alfa Aesar
2764,71550.0,,,2765.0,http://www.alfa.com/en/GP100W.pgm?DSSTK=L07842,102.0,2-iodo-5-nitrotoluene,Cc1cc(ccc1I)[N+](=O)[O-],Alfa Aesar
21006,6658.0,,,21007.0,http://www.srcinc.com/what-we-do/product.aspx?id=133,156.3,o-methylbenzenesulfonamide,Cc1ccccc1S(=O)(N)=O,PHYSPROP
28117,11148.0,,,28118.0,http://www.hbcpnetbase.com/,-143.3,fluoromethane,CF,CRC Handbook
28503,1031.0,,,28504.0,http://www.sigmaaldrich.com/catalog/ProductDetail.do?lang=en&N4=107360%7CALDRICH&N5=SEARCH_CONCAT_PNO%7CBRAND_KEY&F=SPEC,11.5,pyruvic acid,O=C(C(=O)O)C,Sigma-Aldrich
20769,7100.0,,,20770.0,http://www.srcinc.com/what-we-do/product.aspx?id=133,-18.0,"benzene, 1-(1,1-dimethylethyl)-3,5-dimethyl-",Cc1cc(C)cc(c1)C(C)(C)C,PHYSPROP
28391,15489.0,,,28392.0,http://dx.doi.org/10.1016/j.chemosphere.2013.10.095,78.0,PCB-3,C1=CC=C(C=C1)C2=CC=C(C=C2)Cl,Abraham M.H. and Acree Jr. W.E. The solubility of liquid and solid compounds in dry octan-1-ol. Chemosphere (2013)
24120,71976.0,,,24121.0,http://www.srcinc.com/what-we-do/product.aspx?id=133,176.0,"a,a-diphenylpropionic acid",CC(C(=O)O)(c1ccccc1)c2ccccc2,PHYSPROP
12283,707634.0,,,12284.0,http://dx.doi.org/10.1021/ci0500132,171.0,"1-(2,2-diphenylethyl)-3-phenylthiourea",S=C(NCC(c1ccccc1)c1ccccc1)Nc1ccccc1,Karthikeyan M.; Glen R.C.; Bender A. General melting point prediction based on a diverse compound dataset and artificial neural networks. J. Chem. Inf. Model.; 2005; 45(3); 581-3866
8321,6033.0,,,8322.0,http://www.alfa.com/en/GP100W.pgm?DSSTK=A12156,138.0,p-toluenesulfonamide,Cc1ccc(cc1)S(=O)(=O)N,Alfa Aesar
20318,7974.0,,,20319.0,http://www.srcinc.com/what-we-do/product.aspx?id=133,241.5,bromcresol purple,Cc1cc(cc(Br)c1O)C3(OS(=O)(=O)c2ccccc23)c4cc(C)c(O)c(Br)c4,PHYSPROP
14345,26485.0,,,14346.0,http://www.amazon.com/dp/B002IYRJWI,-53.0,3-methyldodecane,CC(CCCCCCCCC)CC,American Petroleum Institute. Research Project 44; Selected Values of Properties of Hydrocarbons and Related Compounds. Texas A & M University; College Station; TX; 1973.
25191,504089.0,,,25192.0,http://www.srcinc.com/what-we-do/product.aspx?id=133,208.0,aspidospermine,CC(=O)N5C1CCC3(CC)CCCN2CCC1(C23)c4cccc(OC)c45,PHYSPROP
27926,5775.0,,,27927.0,http://www.sigmaaldrich.com/united-states.html,148.0,cholesterol,C[C@H](CCCC(C)C)[C@H]1CC[C@@H]2[C@@]1(CC[C@H]3[C@H]2CC=C4[C@@]3(CC[C@@H](C4)O)C)C,Sigma-Aldrich
27184,628486.0,,,27185.0,http://scripts.iucr.org/cgi-bin/paper?cv6088,153.85,2-Nitro-N-phenylbenzamide,O=C(Nc1ccccc1)c2ccccc2[N+]([O-])=O,IUCr
2566,21106534.0,,,2567.0,http://www.alfa.com/en/GP100W.pgm?DSSTK=A10898,-40.0,"2-ethylhexane-1,3-diol",CCCC(C(CC)CO)O,Alfa Aesar
5145,13875196.0,,,5146.0,http://www.alfa.com/en/GP100W.pgm?DSSTK=B23048,-45.0,4-fluoroanisole,COc1ccc(cc1)F,Alfa Aesar
28644,558873.0,,,28645.0,http://en.wikipedia.org/wiki/Bulletin_des_Soci%C3%A9t%C3%A9s_Chimiques_Belges,-72.6,Z-crotononitrile,N#C\C=C/C,Bulletin des Societes Chimiques Belges
13060,2654.0,,,13061.0,http://dx.doi.org/10.1021/ci0500132,141.0,Cimetidine,S(CCNC(=NC#N)NC)Cc1[nH0]c[nH]c1C,Karthikeyan M.; Glen R.C.; Bender A. General melting point prediction based on a diverse compound dataset and artificial neural networks. J. Chem. Inf. Model.; 2005; 45(3); 581-4643
7872,11244.0,,,7873.0,http://www.alfa.com/en/GP100W.pgm?DSSTK=L05065,180.0,"N,N-dimethylurea",CN(C)C(=O)N,Alfa Aesar
3740,2021685.0,,,3741.0,http://www.alfa.com/en/GP100W.pgm?DSSTK=L09328,49.0,3-bromothiophene-2-carbonitrile,c1csc(c1Br)C#N,Alfa Aesar
4583,518940.0,,,4584.0,http://www.alfa.com/en/GP100W.pgm?DSSTK=B24513,140.0,4-amino-3-nitrobenzophenone,c1ccc(cc1)C(=O)c2ccc(c(c2)[N+](=O)[O-])N,Alfa Aesar
18281,15640.0,,,18282.0,http://www.srcinc.com/what-we-do/product.aspx?id=133,47.0,"1,2-benzenediol, 3-(1-methylethyl)- (9ci)",Oc1c(cccc1O)C(C)C,PHYSPROP
25324,579891.0,,,25325.0,http://www.srcinc.com/what-we-do/product.aspx?id=133,136.7,protionamide,CCCc1cc(ccn1)C(N)=S,PHYSPROP
21052,6567.0,,,21053.0,http://www.srcinc.com/what-we-do/product.aspx?id=133,79.0,diethyl diphenyl urea,CCN(C(=O)N(CC)c1ccccc1)c2ccccc2,PHYSPROP
17533,27296.0,,,17534.0,http://www.srcinc.com/what-we-do/product.aspx?id=133,56.5,"phenol, 4-propoxy-",Oc1ccc(OCCC)cc1,PHYSPROP
24864,190747.0,,,24865.0,http://www.srcinc.com/what-we-do/product.aspx?id=133,144.0,d-fucose,OC(C)C(O)C(O)C(O)C=O,PHYSPROP
7612,7176.0,,,7613.0,http://www.alfa.com/en/GP100W.pgm?DSSTK=A14289,127.0,methyl 4-hydroxybenzoate,COC(=O)c1ccc(cc1)O,Alfa Aesar
9357,5258993.0,,,9358.0,http://dx.doi.org/10.1021/ci0500132,231.0,Benzaldehyde semicarbazone,O=C(N)NN=Cc1ccccc1,Karthikeyan M.; Glen R.C.; Bender A. General melting point prediction based on a diverse compound dataset and artificial neural networks. J. Chem. Inf. Model.; 2005; 45(3); 581-940
17788,21073.0,,,17789.0,http://www.srcinc.com/what-we-do/product.aspx?id=133,-102.8,2-methyl-1-hexene,C=C(C)CCCC,PHYSPROP
22142,2238.0,,,22143.0,http://www.srcinc.com/what-we-do/product.aspx?id=133,138.0,bentazone,CC(C)N1C(=O)c2ccccc2NS1(=O)=O,PHYSPROP
21558,5008.0,,,21559.0,http://www.srcinc.com/what-we-do/product.aspx?id=133,96.0,carbamylhydrazine,NC(=O)NN,PHYSPROP
2955,30486.0,,,2956.0,http://www.alfa.com/en/GP100W.pgm?DSSTK=L12238,10.0,2-n-hexyldecanoic acid,CCCCCCCCC(CCCCCC)C(=O)O,Alfa Aesar
9072,10484195.0,,,9073.0,http://dx.doi.org/10.1021/ci0500132,261.0,"4-hydroxy-1-methyl-3-[(4Z)-4-(3-nitrobenzylidene)-5-oxo-4,5-dihydro-1H-pyrazol-3-yl]quinolin-2(1H)-one",O=[N+]([O-])c1cccc(c1)C=C1C(=O)NN=C1C=1C(=O)N(C)c2ccccc2C=1O,Karthikeyan M.; Glen R.C.; Bender A. General melting point prediction based on a diverse compound dataset and artificial neural networks. J. Chem. Inf. Model.; 2005; 45(3); 581-653
1794,4774.0,,,1795.0,http://www.alfa.com/en/GP100W.pgm?DSSTK=L06841,18.0,"2,6-diisopropylphenol",CC(C)c1cccc(c1O)C(C)C,Alfa Aesar
15948,4133.0,,,15949.0,http://msds.chem.ox.ac.uk/,-45.0,"N,N-Diethyl-3-methylbenzamide",Cc1cccc(c1)C(=O)N(CC)CC,academic website
4223,93925.0,,,4224.0,http://www.alfa.com/en/GP100W.pgm?DSSTK=L00966,84.0,4-(1-pyrrolidinyl)benzaldehyde,c1cc(ccc1C=O)N2CCCC2,Alfa Aesar
23788,66889.0,,,23789.0,http://www.srcinc.com/what-we-do/product.aspx?id=133,-2.0,4-methylphenyl butyl ketone,Cc1ccc(cc1)C(=O)CCCC,PHYSPROP
1902,68531.0,,,1903.0,http://www.alfa.com/en/GP100W.pgm?DSSTK=A16969,226.0,"2-amino-3,5-dichlorobenzoic acid",c1c(cc(c(c1C(=O)O)N)Cl)Cl,Alfa Aesar
14294,14760.0,,,14295.0,http://www.amazon.com/dp/B003XEQTLE,221.0,mono-methyl_terephthalate,COC(=O)c1ccc(cc1)C(=O)O,Aldrich Chemical Company; Aldrich Catalog-Handbook of Fine Chemicals; Milwaukee; WI; 1984.
26082,10440142.0,,,26083.0,http://www.srcinc.com/what-we-do/product.aspx?id=133,123.5,"1h-benzimidazole-1-carboxylic acid, 2-(4-thiazol",O=C(OC)n1c3ccccc3nc1c2cscn2,PHYSPROP
22338,911.0,,,22339.0,http://www.srcinc.com/what-we-do/product.aspx?id=133,130.0,nicotinamide,NC(=O)c1cccnc1,PHYSPROP
10927,2033889.0,x,mixture - AL,10928.0,http://dx.doi.org/10.1021/ci0500132,159.0,"2,4,6-trinitrophenol - 3,3-dimethyl-2-phenyl-3H-indole (1:1)",O=[N+]([O-])c1cc([N+](=O)[O-])c(O)c([N+](=O)[O-])c1.N=1c2ccccc2C(C)(C)C=1c1ccccc1,Karthikeyan M.; Glen R.C.; Bender A. General melting point prediction based on a diverse compound dataset and artificial neural networks. J. Chem. Inf. Model.; 2005; 45(3); 581-2510
27883,7694.0,,,27884.0,http://en.wikipedia.org/wiki/Butyl_butyrate,-91.5,butyl butyrate,O=C(OCCCC)CCC,Wikipedia
22772,48024.0,,,22773.0,http://www.srcinc.com/what-we-do/product.aspx?id=133,-6.0,"piperazine, 1-methyl-",CN1CCNCC1,PHYSPROP
11829,2030306.0,,,11830.0,http://dx.doi.org/10.1021/ci0500132,119.0,"1,1'-(4,6-dinitrobenzene-1,3-diyl)dipropane-1,2-dione",O=[N+]([O-])c1cc([N+](=O)[O-])c(cc1C(=O)C(=O)C)C(=O)C(=O)C,Karthikeyan M.; Glen R.C.; Bender A. General melting point prediction based on a diverse compound dataset and artificial neural networks. J. Chem. Inf. Model.; 2005; 45(3); 581-3412
14115,21106112.0,,,14116.0,http://www.amazon.com/dp/B003XEQTLE,14.0,ethyl_2-aminobenzoate,Nc1ccccc1C(=O)OCC,Aldrich Chemical Company; Aldrich Catalog-Handbook of Fine Chemicals; Milwaukee; WI; 1984.
28536,5132.0,,,28537.0,http://dx.doi.org/10.1080/10629360701430124,204.5,sulfadimethoxine,COc1cc(nc(n1)OC)NS(=O)(=O)c2ccc(cc2)N,RAEVSKY OA; PERLOVICH GL and SCHAPER K-J. Physicochemical properties/descriptors governing the solubility and partitioning of chemicals in water-solvent-gas systems. Part 2. Solubility in 1-octanol. SAR and QSAR in Environmental Research Vol. 18 Nos. 5–6 July–September 2007 543–578
3054,10990.0,,,3055.0,http://www.alfa.com/en/GP100W.pgm?DSSTK=A15005,-6.0,2-pyridinemethanol,c1ccnc(c1)CO,Alfa Aesar
22259,1269.0,,,22260.0,http://www.srcinc.com/what-we-do/product.aspx?id=133,116.5,"5,6,7,8-tetrahydro-6-methyl-1,3-dioxolo(4,5-g)i*",CN2CCc1cc5OCOc5cc1C2C4OC(=O)c3c(OC)c(ccc34)OC,PHYSPROP
3543,79323.0,,,3544.0,http://www.alfa.com/en/GP100W.pgm?DSSTK=A19998,87.0,"3,6-dichloro-4-methylpyridazine",Cc1cc(nnc1Cl)Cl,Alfa Aesar
23082,60344.0,,,23083.0,http://www.srcinc.com/what-we-do/product.aspx?id=133,-1.0,tetradecanoyl chloride,ClC(=O)CCCCCCCCCCCCC,PHYSPROP
8004,75515.0,,,8005.0,http://www.alfa.com/en/GP100W.pgm?DSSTK=L13482,91.0,N-boc-sarcosine,CC(C)(C)OC(=O)N(C)CC(=O)O,Alfa Aesar
8035,13777.0,,,8036.0,http://www.alfa.com/en/GP100W.pgm?DSSTK=L06233,97.0,N-dodecyl gallate,CCCCCCCCCCCCOC(=O)c1cc(c(c(c1)O)O)O,Alfa Aesar
26537,13853953.0,,,26538.0,http://www.srcinc.com/what-we-do/product.aspx?id=133,32.5,2-chloro-1-nitrobenzene,O=[N+]([O-])c1ccccc1Cl,PHYSPROP
23936,68840.0,,,23937.0,http://www.srcinc.com/what-we-do/product.aspx?id=133,32.0,naphthalene-2-carboxylic acid ethyl ester,O=C(OCC)c1ccc2ccccc2c1,PHYSPROP
3917,510448.0,,,3918.0,http://www.alfa.com/en/GP100W.pgm?DSSTK=L19325,123.0,3-fluoro-4-hydroxybenzaldehyde,c1cc(c(cc1C=O)F)O,Alfa Aesar