,csid,donotuse,donotusebecause,key,link,mpC,name,smiles,source
10173,2922446.0,,,10174.0,http://dx.doi.org/10.1021/ci0500132,237.0,"1,11-dihydroxy-5,5,8,8,11a,13-hexamethyldodecahydro-2H-3,11c-ethanophenanthro[1,10-de][1,3]dioxin-12-one",O=C1C(C)C2CC(O)C3C11C2OC(OC1CC1C(C)(C)CCC(O)C31C)(C)C,Karthikeyan M.; Glen R.C.; Bender A. General melting point prediction based on a diverse compound dataset and artificial neural networks. J. Chem. Inf. Model.; 2005; 45(3); 581-1756
17133,5541.0,,,17134.0,http://dx.doi.org/10.1021/ci700307p,263.0,dexamethasone,OCC(=O)[C@@]4(O)[C@H](C)C[C@@H]3[C@]4(C)C[C@H](O)[C@@]2(F)[C@H]3CCC1=CC(=O)C=C[C@@]12C,Hughes LD; Palmer DS; Nigsch F and Mitchell JBO. 2008 Why are some properties more difficult to predict than others? A study of QSPR models of solubility; melting point and LogP. J. Chem. Inf. Model. 2008. 48 (1). pp 220?281
16373,54705.0,,,16374.0,http://www.drugbank.ca/drugs/DB01030,215.5,Topotecan,CN(C)Cc1c2cc3CN4C(=O)C=5COC(=O)[C@](O)(CC)C=5C=C4c3nc2ccc1O,DrugBank
7106,21467837.0,,,7107.0,http://www.alfa.com/en/GP100W.pgm?DSSTK=H51727,102.0,ethyl 4-bromomethyl-2-(2-pyridyl)thiazole-5-carboxylate,CCOC(=O)c1c(nc(s1)c2ccccn2)CBr,Alfa Aesar
19219,11507.0,,,19220.0,http://www.srcinc.com/what-we-do/product.aspx?id=133,44.5,"1,2,4-tribromobenzene",Brc1cc(Br)c(Br)cc1,PHYSPROP
8550,556559.0,,,8551.0,http://www.alfa.com/en/GP100W.pgm?DSSTK=A12660,31.0,"trans,trans-2,4-hexadien-1-ol",C/C=C/C=C/CO,Alfa Aesar
13358,7701.0,,,13359.0,http://www.amazon.com/dp/B002IYRJWI,-34.0,pentanoic_acid,CCCCC(=O)O,American Petroleum Institute. Research Project 44; Selected Values of Properties of Hydrocarbons and Related Compounds. Texas A & M University; College Station; TX; 1973.
14634,83983.0,,,14635.0,http://www.amazon.com/dp/B002IYRJWI,-15.0,3-methylhexadecane,CC(CCCCCCCCCCCCC)CC,American Petroleum Institute. Research Project 44; Selected Values of Properties of Hydrocarbons and Related Compounds. Texas A & M University; College Station; TX; 1973.
3811,3079688.0,,,3812.0,http://www.alfa.com/en/GP100W.pgm?DSSTK=H28288,227.0,3-chloro-4-methylbenzeneboronic acid,B(c1ccc(c(c1)Cl)C)(O)O,Alfa Aesar
27798,10189562.0,,,27799.0,http://www.sigmaaldrich.com/united-states.html,191.0,ascorbic acid,C([C@@H]([C@@H]1C(=C(C(=O)O1)O)O)O)O,Sigma-Aldrich
21859,3470.0,,,21860.0,http://www.srcinc.com/what-we-do/product.aspx?id=133,190.0,hetacillin,OC(=O)C1N2C(=O)C(C2SC1(C)C)N3C(=O)C(NC3(C)C)c4ccccc4,PHYSPROP
13930,9919494.0,,,13931.0,http://de.wikipedia.org/wiki/Beilsteins_Handbuch_der_Organischen_Chemie,75.0,p-formyl_benzamide,O=C(N)c1ccc(C=O)cc1,Beilstein F. K.; Beilsteins Handbuch der Organischen Chemie. Springer; Berlin; 1972.
20580,7482.0,,,20581.0,http://www.srcinc.com/what-we-do/product.aspx?id=133,-95.2,n-propylbutyrate,CCCC(=O)OCCC,PHYSPROP
1799,86612.0,,,1800.0,http://www.alfa.com/en/GP100W.pgm?DSSTK=H27139,77.0,"2,6-dimethoxyaniline",COc1cccc(c1N)OC,Alfa Aesar
4015,2773622.0,,,4016.0,http://www.alfa.com/en/GP100W.pgm?DSSTK=B25109,140.0,3'-hydroxyflavanone,c1ccc2c(c1)C(=O)CC(O2)c3cccc(c3)O,Alfa Aesar
12346,595642.0,,,12347.0,http://dx.doi.org/10.1021/ci0500132,105.0,"1,2-Dimethyl-1H-indole-3-carbonitrile",N#Cc1c2ccccc2[nH0](C)c1C,Karthikeyan M.; Glen R.C.; Bender A. General melting point prediction based on a diverse compound dataset and artificial neural networks. J. Chem. Inf. Model.; 2005; 45(3); 581-3929
5749,599790.0,,,5750.0,http://www.alfa.com/en/GP100W.pgm?DSSTK=A16109,195.0,5-bromo-2-fluorocinnamic acid,c1cc(c(cc1Br)/C=C/C(=O)O)F,Alfa Aesar
14107,554595.0,,,14108.0,http://de.wikipedia.org/wiki/Beilsteins_Handbuch_der_Organischen_Chemie,58.0,methyl_3-formylbenzoate,COC(=O)c1cccc(c1)C=O,Beilstein F. K.; Beilsteins Handbuch der Organischen Chemie. Springer; Berlin; 1972.
19864,9634.0,,,19865.0,http://www.srcinc.com/what-we-do/product.aspx?id=133,1.0,1-fluorononane,CCCCCCCCCF,PHYSPROP
11226,2032639.0,,,11227.0,http://dx.doi.org/10.1021/ci0500132,119.0,"2,4,10-trimethyl-4-phenyl-5,6-dihydro-4H-benzo[d]cyclohepta[1,2-b:3,4-b']difuran",o1c2CCC(C)(c3cc(oc3c2c2cc(C)ccc12)C)c1ccccc1,Karthikeyan M.; Glen R.C.; Bender A. General melting point prediction based on a diverse compound dataset and artificial neural networks. J. Chem. Inf. Model.; 2005; 45(3); 581-2809
26426,13835180.0,,,26427.0,http://www.srcinc.com/what-we-do/product.aspx?id=133,-10.4,diethylene glycol,OCCOCCO,PHYSPROP
19684,10259.0,,,19685.0,http://www.srcinc.com/what-we-do/product.aspx?id=133,166.0,"3,4-dinitrobenzoic acid",O=[N+]([O-])c1cc(ccc1[N+]([O-])=O)C(=O)O,PHYSPROP
25549,4243140.0,,,25550.0,http://www.srcinc.com/what-we-do/product.aspx?id=133,130.0,sucralose,OC1C(OC(CO)C(Cl)C1O)OC2(CCl)OC(CCl)C(O)C2O,PHYSPROP
21002,6664.0,,,21003.0,http://www.srcinc.com/what-we-do/product.aspx?id=133,46.5,versalide,CC(=O)c1cc2c(cc1CC)C(C)(C)CCC2(C)C,PHYSPROP
27088,12670.0,,,27089.0,http://scripts.iucr.org/cgi-bin/paper?oa1038,175.85,"1,3,5-Trimethyl-1,3,5-triazinane-2,4,6-trione",O=C1N(C(=O)N(C(=O)N1C)C)C,IUCr
3152,2053702.0,,,3153.0,http://www.alfa.com/en/GP100W.pgm?DSSTK=L20102,215.0,3-(bromomethyl)benzeneboronic acid,B(c1cccc(c1)CBr)(O)O,Alfa Aesar
25245,553117.0,,,25246.0,http://www.srcinc.com/what-we-do/product.aspx?id=133,-7.5,trans-cinnamaldehyde,O=CC=Cc1ccccc1,PHYSPROP
11741,2030561.0,,,11742.0,http://dx.doi.org/10.1021/ci0500132,171.0,"2,7-dimethyl-1,2,3,4-tetrahydropyrido[2,3-g]quinoline",[nH0]1c(C)ccc2cc3NC(C)CCc3cc12,Karthikeyan M.; Glen R.C.; Bender A. General melting point prediction based on a diverse compound dataset and artificial neural networks. J. Chem. Inf. Model.; 2005; 45(3); 581-3324
16835,292.0,,,16836.0,http://www.drugbank.ca/drugs/DB00446,150.5,Chloramphenicol,O=[N+]([O-])c1ccc(cc1)C(O)C(CO)NC(=O)C(Cl)Cl,DrugBank
16760,376.0,,,16761.0,http://www.drugbank.ca/drugs/DB01856,106.0,Pimelic Acid,O=C(O)CCCCCC(=O)O,DrugBank
11952,2029703.0,,,11953.0,http://dx.doi.org/10.1021/ci0500132,170.0,2-(1-carboxypropyl)benzoic acid,O=C(O)c1ccccc1C(CC)C(=O)O,Karthikeyan M.; Glen R.C.; Bender A. General melting point prediction based on a diverse compound dataset and artificial neural networks. J. Chem. Inf. Model.; 2005; 45(3); 581-3535
22358,834.0,,,22359.0,http://www.srcinc.com/what-we-do/product.aspx?id=133,293.0,leucine,CC(C)CC(N)C(=O)O,PHYSPROP
23554,63300.0,,,23555.0,http://www.srcinc.com/what-we-do/product.aspx?id=133,-31.0,cyclopropylbenzene,c1ccccc1C2CC2,PHYSPROP
219,7882.0,,,220.0,http://www.alfa.com/en/GP100W.pgm?DSSTK=A17288,6.0,1-decanol,CCCCCCCCCCO,Alfa Aesar
5062,126650.0,,,5063.0,http://www.alfa.com/en/GP100W.pgm?DSSTK=L05433,126.0,4-ethoxybenzhydrazide,CCOc1ccc(cc1)C(=O)NN,Alfa Aesar
18117,16644.0,,,18118.0,http://www.srcinc.com/what-we-do/product.aspx?id=133,95.5,o-chlorobenzylidenemalononitrile,Clc1ccccc1/C=C(C#N)C#N,PHYSPROP
8754,2297976.0,,,8755.0,http://dx.doi.org/10.1021/ci020280x,159.0,adrafinil,ONC(=O)CS(=O)C(c1ccccc1)c2ccccc2,Bergstrom C. A. S.; Norinder U.; Luthman K.; Artursson P. Molecular Descriptors Influencing Melting Point and Their Role in Classification of Solid Drugs. J. Chem. Inf. Comput. Sci.; (Article); 2003; 43(4); 1177-1201
1995,24633.0,,,1996.0,http://www.alfa.com/en/GP100W.pgm?DSSTK=L06915,200.0,"2-amino-5-ethyl-1,3,4-thiadiazole",CCc1nnc(s1)N,Alfa Aesar
4116,11430269.0,,,4117.0,http://www.alfa.com/en/GP100W.pgm?DSSTK=H51794,120.0,3-methylpyridine-2-thiocarboxamide,Cc1cccnc1C(=S)N,Alfa Aesar
19126,11711.0,,,19127.0,http://www.srcinc.com/what-we-do/product.aspx?id=133,61.0,"glycerol, 1-nitrate",[O-][N+](=O)OCC(O)CO,PHYSPROP
11486,2031468.0,,,11487.0,http://dx.doi.org/10.1021/ci0500132,210.0,"3,3'-ethane-1,2-diylbis(1,7,7-trimethylbicyclo[2.2.1]heptan-2-one)",O=C1C(CCC2C(=O)C3(C)CCC2C3(C)C)C2CCC1(C)C2(C)C,Karthikeyan M.; Glen R.C.; Bender A. General melting point prediction based on a diverse compound dataset and artificial neural networks. J. Chem. Inf. Model.; 2005; 45(3); 581-3069
3752,2053948.0,,,3753.0,http://www.alfa.com/en/GP100W.pgm?DSSTK=B24127,176.0,"3-chloro-2,4-difluorobenzoic acid",c1cc(c(c(c1C(=O)O)F)Cl)F,Alfa Aesar
4132,28947.0,,,4133.0,http://www.alfa.com/en/GP100W.pgm?DSSTK=B22062,152.0,3'-nitroacetanilide,CC(=O)Nc1cccc(c1)[N+](=O)[O-],Alfa Aesar
27577,21106172.0,,,27578.0,http://books.google.com/books?id=kEYfRAAACAAJ,69.0,"2,4,6-trichlorophenol",c1c(cc(c(c1Cl)O)Cl)Cl,Merck Index
8765,64830.0,,,8766.0,http://dx.doi.org/10.1021/ci020280x,113.0,amphotalide,Nc3ccc(OCCCCCN2C(=O)c1ccccc1C2=O)cc3,Bergstrom C. A. S.; Norinder U.; Luthman K.; Artursson P. Molecular Descriptors Influencing Melting Point and Their Role in Classification of Solid Drugs. J. Chem. Inf. Comput. Sci.; (Article); 2003; 43(4); 1177-1212
14869,6389.0,,,14870.0,http://msds.chem.ox.ac.uk/,40.0,"1,1'-(Dioxydipropane-2,2-diyl)dibenzene",CC(C)(OOC(C)(C)c1ccccc1)c2ccccc2,academic website
7699,10437212.0,,,7700.0,http://www.alfa.com/en/GP100W.pgm?DSSTK=H27449,66.0,methyl pyridazine-4-carboxylate,COC(=O)c1ccnnc1,Alfa Aesar
24592,91934.0,,,24593.0,http://www.srcinc.com/what-we-do/product.aspx?id=133,188.0,(+)-perseitol,OC(C(O)C(O)CO)C(O)C(O)CO,PHYSPROP
8840,31014.0,,,8841.0,http://dx.doi.org/10.1021/ci020280x,208.0,indoramin,O=C(NC1CCN(CC1)CCc2c[nH]c3ccccc23)c4ccccc4,Bergstrom C. A. S.; Norinder U.; Luthman K.; Artursson P. Molecular Descriptors Influencing Melting Point and Their Role in Classification of Solid Drugs. J. Chem. Inf. Comput. Sci.; (Article); 2003; 43(4); 1177-1287
7278,9394.0,,,7279.0,http://www.alfa.com/en/GP100W.pgm?DSSTK=A14907,-18.0,heptafluorobutyric acid,C(=O)(C(C(C(F)(F)F)(F)F)(F)F)O,Alfa Aesar
13031,3618.0,,,13032.0,http://dx.doi.org/10.1021/ci0500132,180.0,Irbesartan,O=C1N(Cc2ccc(cc2)c2ccccc2c2[nH0][nH0][nH0][nH]2)C(=NC21CCCC2)CCCC,Karthikeyan M.; Glen R.C.; Bender A. General melting point prediction based on a diverse compound dataset and artificial neural networks. J. Chem. Inf. Model.; 2005; 45(3); 581-4614
18944,12144.0,,,18945.0,http://www.srcinc.com/what-we-do/product.aspx?id=133,39.5,delta-valerolactam,O=C1CCCCN1,PHYSPROP
3261,73027.0,,,3262.0,http://www.alfa.com/en/GP100W.pgm?DSSTK=A15201,36.0,"3,4,5-trimethoxytoluene",Cc1cc(c(c(c1)OC)OC)OC,Alfa Aesar
23202,61404.0,,,23203.0,http://www.srcinc.com/what-we-do/product.aspx?id=133,149.0,dipyrocetyl,O=C(C)Oc1cccc(c1OC(C)=O)C(=O)O,PHYSPROP
15772,64639.0,,,15773.0,http://msds.chem.ox.ac.uk/,274.5,D-Phenylalanine,N[C@H](Cc1ccccc1)C(=O)O,academic website
5170,455890.0,,,5171.0,http://www.alfa.com/en/GP100W.pgm?DSSTK=H26269,28.0,4-fluorophenylacetylene,C#Cc1ccc(cc1)F,Alfa Aesar
5501,478390.0,,,5502.0,http://www.alfa.com/en/GP100W.pgm?DSSTK=L17481,52.0,4-nitrophenyl trifluoromethanesulfonate,c1cc(ccc1[N+](=O)[O-])OS(=O)(=O)C(F)(F)F,Alfa Aesar
22766,47194.0,,,22767.0,http://www.srcinc.com/what-we-do/product.aspx?id=133,94.5,"9h-fluorene-9-carboxamide, 9-[3-[(1-methylethyl)",NC(=O)C3(CCCNC(C)C)c1ccccc1c2ccccc23,PHYSPROP
22353,843.0,,,22354.0,http://www.srcinc.com/what-we-do/product.aspx?id=133,224.0,dl-lysine,NC(CCCCN)C(=O)O,PHYSPROP
21616,4732.0,,,21617.0,http://www.srcinc.com/what-we-do/product.aspx?id=133,245.0,pregnanediol v,CC(O)C1CCC2C3CCC4CC(O)CCC4(C)C3CCC12C,PHYSPROP
10649,2034729.0,,,10650.0,http://dx.doi.org/10.1021/ci0500132,313.0,"7-(4-hydroxyphenyl)-10,10-dimethyl-7,10,11,12-tetrahydrobenzo[c]acridin-8(9H)-one",O=C1CC(C)(C)CC=2Nc3c4ccccc4ccc3C(c3ccc(O)cc3)C1=2,Karthikeyan M.; Glen R.C.; Bender A. General melting point prediction based on a diverse compound dataset and artificial neural networks. J. Chem. Inf. Model.; 2005; 45(3); 581-2232
10193,2759979.0,,,10194.0,http://dx.doi.org/10.1021/ci0500132,136.0,"5-methyl-2-(2,4,4,7-tetramethyl-3,4-dihydro-2H-chromen-2-yl)phenyl 4,7,7-trimethyl-3-oxo-2-oxabicyclo[2.2.1]heptane-1-carboxylate",O=C1OC2(CCC1(C)C2(C)C)C(=O)Oc1cc(C)ccc1C1(Oc2cc(C)ccc2C(C)(C)C1)C,Karthikeyan M.; Glen R.C.; Bender A. General melting point prediction based on a diverse compound dataset and artificial neural networks. J. Chem. Inf. Model.; 2005; 45(3); 581-1776
3710,716621.0,,,3711.0,http://www.alfa.com/en/GP100W.pgm?DSSTK=H25766,26.0,3-bromo-5-fluoropyridine,c1c(cncc1Br)F,Alfa Aesar
16765,4514937.0,,,16766.0,http://www.drugbank.ca/drugs/DB00178,109.0,Ramipril,O=C(OCC)[C@H](CCc1ccccc1)N[C@@H](C)C(=O)N2[C@@H](C[C@@H]3CCC[C@H]23)C(=O)O,DrugBank
20180,8329.0,,,20181.0,http://www.srcinc.com/what-we-do/product.aspx?id=133,94.8,benzil,O=C(C(=O)c1ccccc1)c2ccccc2,PHYSPROP
14396,7518.0,,,14397.0,http://www.amazon.com/dp/B003XEQTLE,67.0,p-bromochlorobenzene,Clc1ccc(Br)cc1,Aldrich Chemical Company; Aldrich Catalog-Handbook of Fine Chemicals; Milwaukee; WI; 1984.
148,10497.0,,,149.0,http://www.alfa.com/en/GP100W.pgm?DSSTK=A12340,-103.0,1-iodobutane,CCCCI,Alfa Aesar
15980,906.0,,,15981.0,http://msds.chem.ox.ac.uk/,77.0,Naphthalene,c1cccc2ccccc12,academic website
10331,2036494.0,,,10332.0,http://dx.doi.org/10.1021/ci0500132,231.0,"2-(benzylamino)-3,5,6-trichlorocyclohexa-2,5-diene-1,4-dione",ClC1=C(Cl)C(=O)C(NCc2ccccc2)=C(Cl)C1=O,Karthikeyan M.; Glen R.C.; Bender A. General melting point prediction based on a diverse compound dataset and artificial neural networks. J. Chem. Inf. Model.; 2005; 45(3); 581-1914
21132,6393.0,,,21133.0,http://www.srcinc.com/what-we-do/product.aspx?id=133,28.5,"benzenesulfonic acid, 4-methyl-, methyl ester",COS(=O)(=O)c1ccc(C)cc1,PHYSPROP
24762,121891.0,,,24763.0,http://www.srcinc.com/what-we-do/product.aspx?id=133,-73.0,hexylcyclopentane,CCCCCCC1CCCC1,PHYSPROP
20514,7626.0,,,20515.0,http://www.srcinc.com/what-we-do/product.aspx?id=133,-86.8,di-isopropyl ether,CC(C)OC(C)C,PHYSPROP
9469,4772666.0,,,9470.0,http://dx.doi.org/10.1021/ci0500132,205.0,"(4Z)-4-[(3-hydroxyphenyl)hydrazono]-5-methyl-2-(piperidin-1-ylmethyl)-2,4-dihydro-3H-pyrazol-3-one",O=C1N(N=C(C)C1=NNc1cccc(O)c1)CN1CCCCC1,Karthikeyan M.; Glen R.C.; Bender A. General melting point prediction based on a diverse compound dataset and artificial neural networks. J. Chem. Inf. Model.; 2005; 45(3); 581-1052
19575,10604.0,,,19576.0,http://www.srcinc.com/what-we-do/product.aspx?id=133,104.0,1-nitro-2-naphthol,[O-][N+](=O)c1c2ccccc2ccc1O,PHYSPROP
17376,31264.0,,,17377.0,http://www.srcinc.com/what-we-do/product.aspx?id=133,70.0,"2,4,6-tribromotoluene",Brc1cc(Br)cc(Br)c1C,PHYSPROP
25938,10178926.0,,,25939.0,http://www.srcinc.com/what-we-do/product.aspx?id=133,101.0,8-chloro-2-naphthol,Oc1cc2c(cc1)cccc2Cl,PHYSPROP
21806,3690.0,,,21807.0,http://www.srcinc.com/what-we-do/product.aspx?id=133,231.0,ketanserin,Fc1ccc(cc1)C(=O)C4CCN(CCN2C(=O)c3ccccc3NC2=O)CC4,PHYSPROP
17932,18920.0,,,17933.0,http://www.srcinc.com/what-we-do/product.aspx?id=133,-31.6,dl-2-octanol,CC(O)CCCCCC,PHYSPROP
2971,11178542.0,,,2972.0,http://www.alfa.com/en/GP100W.pgm?DSSTK=A14084,176.0,2-nitrobenzamide,c1ccc(c(c1)C(=O)N)[N+](=O)[O-],Alfa Aesar
16858,3574.0,,,16859.0,http://www.drugbank.ca/drugs/DB00808,161.0,Indapamide,NS(=O)(=O)c1cc(ccc1Cl)C(=O)NN2c3ccccc3CC2C,DrugBank
1151,58603.0,,,1152.0,http://www.alfa.com/en/GP100W.pgm?DSSTK=A11118,58.0,"2,2'-dipyridyl disulfide",c1ccnc(c1)SSc2ccccn2,Alfa Aesar
21754,3944.0,,,21755.0,http://www.srcinc.com/what-we-do/product.aspx?id=133,100.0,metaproterenol,Oc1cc(cc(O)c1)C(O)CNC(C)C,PHYSPROP
20845,6943.0,,,20846.0,http://www.srcinc.com/what-we-do/product.aspx?id=133,135.0,"benzaldehyde, 2,4-dihydroxy-",O=Cc1ccc(O)cc1O,PHYSPROP
21972,3008.0,,,21973.0,http://www.srcinc.com/what-we-do/product.aspx?id=133,158.0,diuron,Clc1ccc(NC(=O)N(C)C)cc1Cl,PHYSPROP
25289,555073.0,,,25290.0,http://www.srcinc.com/what-we-do/product.aspx?id=133,-133.0,2-hexene (trans),CCCC=CC,PHYSPROP
22071,2626.0,,,22072.0,http://www.srcinc.com/what-we-do/product.aspx?id=133,128.0,chlorpropamide,O=S(=O)(NC(=O)NCCC)c1ccc(Cl)cc1,PHYSPROP
10744,2034440.0,,,10745.0,http://dx.doi.org/10.1021/ci0500132,143.0,4-methoxyphenyl (4-butylphenyl)carbamate,O=C(Oc1ccc(OC)cc1)Nc1ccc(cc1)CCCC,Karthikeyan M.; Glen R.C.; Bender A. General melting point prediction based on a diverse compound dataset and artificial neural networks. J. Chem. Inf. Model.; 2005; 45(3); 581-2327
28080,682.0,,,28081.0,http://en.wikipedia.org/wiki/Ethanol,-114.3,ethanol,CCO,Wikipedia
23804,67049.0,,,23805.0,http://www.srcinc.com/what-we-do/product.aspx?id=133,174.5,"phenol, 4,4'-iminobis-",Oc2ccc(Nc1ccc(O)cc1)cc2,PHYSPROP
3055,453012.0,,,3056.0,http://www.alfa.com/en/GP100W.pgm?DSSTK=L07114,78.0,2-pyridinesulfonylacetonitrile,c1ccnc(c1)S(=O)(=O)CC#N,Alfa Aesar
24445,83868.0,,,24446.0,http://www.srcinc.com/what-we-do/product.aspx?id=133,186.5,topanol ca,CC(C)(C)c1cc(c(C)cc1O)C(C)CC(c2cc(c(O)cc2C)C(C)(C)C)c3cc(c(O)cc3C)C(C)(C)C,PHYSPROP
10847,2034071.0,,,10848.0,http://dx.doi.org/10.1021/ci0500132,59.0,"2-(trimethylsilyl)-3a,4,5,6,7,7a-hexahydro-1H-inden-1-one",[Si](C)(C)(C)C1=CC2CCCCC2C1=O,Karthikeyan M.; Glen R.C.; Bender A. General melting point prediction based on a diverse compound dataset and artificial neural networks. J. Chem. Inf. Model.; 2005; 45(3); 581-2430
2624,212275.0,,,2625.0,http://www.alfa.com/en/GP100W.pgm?DSSTK=H26094,161.0,2-fluoro-5-methylbenzoic acid,Cc1ccc(c(c1)C(=O)O)F,Alfa Aesar
11826,2030311.0,,,11827.0,http://dx.doi.org/10.1021/ci0500132,118.0,"diethyl 2,2'-(4,6-dinitrobenzene-1,3-diyl)bis(oxoacetate)",O=[N+]([O-])c1cc([N+](=O)[O-])c(cc1C(=O)C(=O)OCC)C(=O)C(=O)OCC,Karthikeyan M.; Glen R.C.; Bender A. General melting point prediction based on a diverse compound dataset and artificial neural networks. J. Chem. Inf. Model.; 2005; 45(3); 581-3409
16749,3548.0,,,16750.0,http://www.drugbank.ca/drugs/DB00281,68.5,Lidocaine,O=C(Nc1c(C)cccc1C)CN(CC)CC,DrugBank
6781,24722.0,,,6782.0,http://www.alfa.com/en/GP100W.pgm?DSSTK=A13133,162.0,dibenzo-18-crown-6,c1ccc2c(c1)OCCOCCOc3ccccc3OCCOCCO2,Alfa Aesar
18440,14849.0,,,18441.0,http://www.srcinc.com/what-we-do/product.aspx?id=133,30.0,"heptadecanoic acid, methyl ester",O=C(CCCCCCCCCCCCCCCC)OC,PHYSPROP
23975,69505.0,,,23976.0,http://www.srcinc.com/what-we-do/product.aspx?id=133,-110.7,"cyclopentane, 2-propenyl-",C=CCC1CCCC1,PHYSPROP
20879,6883.0,,,20880.0,http://www.srcinc.com/what-we-do/product.aspx?id=133,-15.0,"benzoic acid, methyl ester",COC(=O)c1ccccc1,PHYSPROP
7895,67404.0,,,7896.0,http://www.alfa.com/en/GP100W.pgm?DSSTK=B23812,168.0,N-acetyl-l-phenylalanine,CC(=O)N[C@@H](Cc1ccccc1)C(=O)O,Alfa Aesar
14086,21733.0,,,14087.0,http://www.amazon.com/dp/B003XEQTLE,36.0,m-diacetylbenzene,O=C(C)c1cccc(c1)C(C)=O,Aldrich Chemical Company; Aldrich Catalog-Handbook of Fine Chemicals; Milwaukee; WI; 1984.
839,69710.0,,,840.0,http://www.alfa.com/en/GP100W.pgm?DSSTK=L09006,49.0,1-(2-hydroxyethyl)-2-imidazolidinone,C1CN(C(=O)N1)CCO,Alfa Aesar
3017,110046.0,,,3018.0,http://www.alfa.com/en/GP100W.pgm?DSSTK=A11247,181.0,2-phenoxynicotinic acid,c1ccc(cc1)Oc2c(cccn2)C(=O)O,Alfa Aesar
8498,6156.0,,,8499.0,http://www.alfa.com/en/GP100W.pgm?DSSTK=A13148,-100.0,tetramethylsilane,C[Si](C)(C)C,Alfa Aesar
25236,547107.0,,,25237.0,http://www.srcinc.com/what-we-do/product.aspx?id=133,172.0,11-ketoprogesterone,CC(=O)C3CCC2C1CCC4=CC(=O)CCC4(C)C1C(=O)CC23C,PHYSPROP
18275,15694.0,,,18276.0,http://www.srcinc.com/what-we-do/product.aspx?id=133,138.0,cycluron,CN(C)C(=O)NC1CCCCCCC1,PHYSPROP
27049,24731084.0,,,27050.0,http://scripts.iucr.org/cgi-bin/paper?ci6019,107.85,(3Z)-3-(2-Oxopropylidene)isoindolin-1-one,O=C(C=C2c1ccccc1C(=O)N2)C,IUCr
21492,5269.0,,,21493.0,http://www.srcinc.com/what-we-do/product.aspx?id=133,96.0,tiaprofenic acid,O=C(c1ccc(s1)C(C)C(=O)O)c2ccccc2,PHYSPROP
23821,67237.0,,,23822.0,http://www.srcinc.com/what-we-do/product.aspx?id=133,64.5,"2,2-diphenyl ethanol",OCC(c1ccccc1)c2ccccc2,PHYSPROP
16583,111188.0,,,16584.0,http://www.drugbank.ca/drugs/DB00143,193.5,Glutathione,O=C(NCC(=O)O)[C@@H](NC(=O)CC[C@H](N)C(=O)O)CS,DrugBank
13647,11672.0,,,13648.0,http://www.amazon.com/dp/B003XEQTLE,226.0,"1,4-dicyanobenzene",N#Cc1ccc(C#N)cc1,Aldrich Chemical Company; Aldrich Catalog-Handbook of Fine Chemicals; Milwaukee; WI; 1984.
26401,11507444.0,,,26402.0,http://www.srcinc.com/what-we-do/product.aspx?id=133,120.0,"2,7-dichloroquinoline",Clc1cc2nc(Cl)ccc2cc1,PHYSPROP
21779,3864.0,,,21780.0,http://www.srcinc.com/what-we-do/product.aspx?id=133,2.8,malathion,CCOC(=O)CC(SP(=S)(OC)OC)C(=O)OCC,PHYSPROP