,csid,donotuse,donotusebecause,key,link,mpC,name,smiles,source
9495,4761508.0,,,9496.0,http://dx.doi.org/10.1021/ci0500132,184.0,"ethyl (2Z)-4,4,4-trifluoro-2-[(4-nitrophenyl)hydrazono]-3-oxobutanoate",FC(F)(F)C(=O)C(=NNc1ccc([N+](=O)[O-])cc1)C(=O)OCC,Karthikeyan M.; Glen R.C.; Bender A. General melting point prediction based on a diverse compound dataset and artificial neural networks. J. Chem. Inf. Model.; 2005; 45(3); 581-1078
27411,57726.0,,,27412.0,http://dx.doi.org/10.1016/S0021-9614(02)00317-8,279.75,1-hydroxyadamantane,OC13CC2CC(CC(C1)C2)C3,Charapennikau MB; Blokhin AV; Kabo AG; Kabo GJ Journal of Chemical Thermodynamics; 35(1); 145-157 (2003)
6932,62236.0,,,6933.0,http://www.alfa.com/en/GP100W.pgm?DSSTK=B22035,44.0,di-n-butyl sulfone,CCCCS(=O)(=O)CCCC,Alfa Aesar
20577,7502.0,,,20578.0,http://www.srcinc.com/what-we-do/product.aspx?id=133,-15.7,"hexanedioic acid, dipropyl ester",O=C(CCCCC(=O)OCCC)OCCC,PHYSPROP
1440,599623.0,,,1441.0,http://www.alfa.com/en/GP100W.pgm?DSSTK=B22064,141.0,"2,4-dichloro-5-fluorobenzoic acid",c1c(c(cc(c1F)Cl)Cl)C(=O)O,Alfa Aesar
16894,2621.0,,,16895.0,http://www.drugbank.ca/drugs/DB01243,179.5,Chloroxine,Oc1c(Cl)cc(Cl)c2cccnc12,DrugBank
11858,2029942.0,,,11859.0,http://dx.doi.org/10.1021/ci0500132,118.0,"2,2,3,3,4,4,5,5,6,6,7,7,8,8,9,9,9-heptadecafluoro-N-(4-methoxybiphenyl-3-yl)nonanamide",FC(F)(F)C(F)(F)C(F)(F)C(F)(F)C(F)(F)C(F)(F)C(F)(F)C(F)(F)C(=O)Nc1cc(ccc1OC)c1ccccc1,Karthikeyan M.; Glen R.C.; Bender A. General melting point prediction based on a diverse compound dataset and artificial neural networks. J. Chem. Inf. Model.; 2005; 45(3); 581-3441
19493,10864.0,,,19494.0,http://www.srcinc.com/what-we-do/product.aspx?id=133,43.0,o-bromonitrobenzene,O=[N+]([O-])c1ccccc1Br,PHYSPROP
9265,7855620.0,,,9266.0,http://dx.doi.org/10.1021/ci0500132,239.0,"(2E)-2-{1-[(5alpha,8xi,9xi)-10,17,17-trimethylgona-2,13-dien-3-yl]ethylidene}hydrazinecarboxamide",O=C(N)NN=C(C)C1=CCC2(C)C(CCC3C=4CCC(C)(C)C=4CCC32)C1,Karthikeyan M.; Glen R.C.; Bender A. General melting point prediction based on a diverse compound dataset and artificial neural networks. J. Chem. Inf. Model.; 2005; 45(3); 581-848
263,67962.0,,,264.0,http://www.alfa.com/en/GP100W.pgm?DSSTK=A18295,-29.0,1-butanesulfonyl chloride,CCCCS(=O)(=O)Cl,Alfa Aesar
22369,804.0,,,22370.0,http://www.srcinc.com/what-we-do/product.aspx?id=133,104.0,ribitol,OC(CO)C(O)C(O)CO,PHYSPROP
24333,79889.0,,,24334.0,http://www.srcinc.com/what-we-do/product.aspx?id=133,26.5,"1,1'-biphenyl, 3-iodo-",Ic1cc(ccc1)c2ccccc2,PHYSPROP
5381,71571.0,,,5382.0,http://www.alfa.com/en/GP100W.pgm?DSSTK=L09372,60.0,4'-methyl-3'-nitroacetophenone,Cc1ccc(cc1[N+](=O)[O-])C(=O)C,Alfa Aesar
4021,73841.0,,,4022.0,http://www.alfa.com/en/GP100W.pgm?DSSTK=L05860,250.0,3-indazolinone,c1ccc2c(c1)c(=O)[nH][nH]2,Alfa Aesar
1967,2848685.0,,,1968.0,http://www.alfa.com/en/GP100W.pgm?DSSTK=A13964,143.0,2-amino-4-nitrophenol,c1cc(c(cc1[N+](=O)[O-])N)O,Alfa Aesar
12260,794161.0,,,12261.0,http://dx.doi.org/10.1021/ci0500132,78.0,(3E)-3-{[5-(4-methylphenyl)furan-2-yl]methylidene}-5-(2-methylpropyl)furan-2(3H)-one,O=C1OC(=CC1=Cc1oc(cc1)c1ccc(C)cc1)CC(C)C,Karthikeyan M.; Glen R.C.; Bender A. General melting point prediction based on a diverse compound dataset and artificial neural networks. J. Chem. Inf. Model.; 2005; 45(3); 581-3843
27246,24731298.0,,,27247.0,http://scripts.iucr.org/cgi-bin/paper?ob6077,296.85,"(1'S,3aR,4R,6'S,7aR,9'R,10'S)-7a,10'-Dimethyltetrahydro-1H,11'H-spiro[2-benzofuran-4,5'-[3]oxatricyclo[7.2.1.0~1,6~]dodecane]-2',3,11'(3aH)-trione",O=C4OC[C@]5(C)CCC[C@@]3([C@H]2[C@@]1(C(=O)[C@H]([C@@H](C1)CC2)C)C(=O)OC3)[C@H]45,IUCr
10142,3146549.0,,,10143.0,http://dx.doi.org/10.1021/ci0500132,128.0,"4a,9,9a,10-tetrahydroanthracene-1,4-dione",O=C1C=CC(=O)C2Cc3ccccc3CC12,Karthikeyan M.; Glen R.C.; Bender A. General melting point prediction based on a diverse compound dataset and artificial neural networks. J. Chem. Inf. Model.; 2005; 45(3); 581-1725
17687,23080.0,,,17688.0,http://www.srcinc.com/what-we-do/product.aspx?id=133,39.55,sulfur trioxide,O=S(=O)=O,PHYSPROP
20451,7739.0,,,20452.0,http://www.srcinc.com/what-we-do/product.aspx?id=133,-39.4,thiophene,c1cccs1,PHYSPROP
25726,4516605.0,,,25727.0,http://www.srcinc.com/what-we-do/product.aspx?id=133,-66.5,"2-undecene, (z)-",CCCCCCCCC=CC,PHYSPROP
21843,3530.0,,,21844.0,http://www.srcinc.com/what-we-do/product.aspx?id=133,141.0,hydroxyurea,NC(=O)NO,PHYSPROP
4408,4526150.0,,,4409.0,http://www.alfa.com/en/GP100W.pgm?DSSTK=L10717,158.0,"4,4'-dichlorochalcone",c1cc(ccc1/C=C/C(=O)c2ccc(cc2)Cl)Cl,Alfa Aesar
17125,10442628.0,,,17126.0,http://dx.doi.org/10.1021/ci700307p,183.9,clozapine,CN1CCN(CC1)C2=Nc4cc(Cl)ccc4Nc3ccccc23,Hughes LD; Palmer DS; Nigsch F and Mitchell JBO. 2008 Why are some properties more difficult to predict than others? A study of QSPR models of solubility; melting point and LogP. J. Chem. Inf. Model. 2008. 48 (1). pp 220?273
27761,0.0,,,27762.0,http://www.arkat-usa.org/get-file/42030/,70.0,Acid 9 (No name),C1(CC(=C1)C(=O)O)(C)C,Arkivoc
23712,65694.0,,,23713.0,http://www.srcinc.com/what-we-do/product.aspx?id=133,114.0,"propanoic acid, 2-(2-chlorophenoxy)-",Clc1ccccc1OC(C)C(=O)O,PHYSPROP
19900,9486.0,,,19901.0,http://www.srcinc.com/what-we-do/product.aspx?id=133,-95.0,methyl fluorosulfonate,FS(=O)(=O)OC,PHYSPROP
13762,62513.0,,,13763.0,http://www.questia.com/library/book/physical_properties_of_chemical_compounds_by_robert_rickert_dreisbach.jsp,26.0,3-propylphenol,Oc1cc(CCC)ccc1,Dreisbach R. R. Physical Properties of Chemical Compounds; Vol. I; American Chemical Society; Washington; 1955.
23618,63891.0,,,23619.0,http://www.srcinc.com/what-we-do/product.aspx?id=133,156.0,glutarimide,O=C1CCCC(=O)N1,PHYSPROP
612,77230.0,,,613.0,http://www.alfa.com/en/GP100W.pgm?DSSTK=L20442,66.0,"1,3-bis(4-piperidinyl)propane",C1CNCCC1CCCC2CCNCC2,Alfa Aesar
15590,7480.0,,,15591.0,http://msds.chem.ox.ac.uk/,69.0,Azepan-2-one,O=C1CCCCCN1,academic website
1612,17474.0,,,1613.0,http://www.alfa.com/en/GP100W.pgm?DSSTK=A13839,-41.0,"2,5-dichlorothiophene",c1cc(sc1Cl)Cl,Alfa Aesar
14812,392539.0,,,14813.0,http://msds.chem.ox.ac.uk/,160.0,"(3beta,22E)-Ergosta-5,7,22-trien-3-ol",CC(C)[C@@H](C)/C=C/[C@@H](C)[C@H]2CC[C@H]3C4=CC=C1C[C@@H](O)CC[C@]1(C)[C@H]4CC[C@]23C,academic website
1027,250543.0,,,1028.0,http://www.alfa.com/en/GP100W.pgm?DSSTK=H51018,139.0,2-(methylsulfonyl)benzoic acid,CS(=O)(=O)c1ccccc1C(=O)O,Alfa Aesar
4490,460501.0,,,4491.0,http://www.alfa.com/en/GP100W.pgm?DSSTK=H29204,52.0,"4,6-dichlorosalicylaldehyde",c1c(cc(c(c1O)C=O)Cl)Cl,Alfa Aesar
20094,8661.0,,,20095.0,http://www.srcinc.com/what-we-do/product.aspx?id=133,100.0,merphos,CCCCSP(SCCCC)SCCCC,PHYSPROP
2108,267469.0,,,2109.0,http://www.alfa.com/en/GP100W.pgm?DSSTK=H26242,159.0,2-bromo-3-fluorobenzoic acid,c1cc(c(c(c1)F)Br)C(=O)O,Alfa Aesar
18791,12834.0,,,18792.0,http://www.srcinc.com/what-we-do/product.aspx?id=133,56.5,"1,2-dimethylindole",Cc2cc1ccccc1n2C,PHYSPROP
2079,305749.0,,,2080.0,http://www.alfa.com/en/GP100W.pgm?DSSTK=L12866,47.0,2-benzyloxybenzaldehyde,c1ccc(cc1)COc2ccccc2C=O,Alfa Aesar
23814,67186.0,,,23815.0,http://www.srcinc.com/what-we-do/product.aspx?id=133,-8.0,2-nonynoic acid,O=C(O)C#CCCCCCC,PHYSPROP
1058,6656.0,,,1059.0,http://www.alfa.com/en/GP100W.pgm?DSSTK=A15072,-34.0,2-(trifluoromethyl)aniline,c1ccc(c(c1)C(F)(F)F)N,Alfa Aesar
20056,8834.0,,,20057.0,http://www.srcinc.com/what-we-do/product.aspx?id=133,107.4,phenanthridine,c1cccc2cnc3ccccc3c12,PHYSPROP
20173,8347.0,,,20174.0,http://www.srcinc.com/what-we-do/product.aspx?id=133,257.0,pentacene,c1c3cc4cc5ccccc5cc4cc3cc2ccccc12,PHYSPROP
22047,2699.0,,,22048.0,http://www.srcinc.com/what-we-do/product.aspx?id=133,189.5,chlorimipramine,CN(C)CCCN2c3ccccc3CCc1ccc(Cl)cc12,PHYSPROP
19322,11289.0,,,19323.0,http://www.srcinc.com/what-we-do/product.aspx?id=133,146.0,"2,3-dimethylbenzoic acid",OC(=O)c1cccc(C)c1C,PHYSPROP
5684,641750.0,,,5685.0,http://www.alfa.com/en/GP100W.pgm?DSSTK=H27287,185.0,5-amino-1-(3-chlorophenyl)-1h-pyrazole-4-carbonitrile,c1cc(cc(c1)Cl)n2c(c(cn2)C#N)N,Alfa Aesar
25035,315874.0,,,25036.0,http://www.srcinc.com/what-we-do/product.aspx?id=133,128.0,"uridine, 2',3'-dideoxy-",O=C1NC(=O)N(C=C1)C2CCC(CO)O2,PHYSPROP
6563,71096.0,,,6564.0,http://www.alfa.com/en/GP100W.pgm?DSSTK=A11014,62.0,bis(pentafluorophenyl)phenylphosphine,c1ccc(cc1)P(c2c(c(c(c(c2F)F)F)F)F)c3c(c(c(c(c3F)F)F)F)F,Alfa Aesar
5515,1688.0,,,5516.0,http://www.alfa.com/en/GP100W.pgm?DSSTK=A15609,45.0,4-n-nonylphenol,CCCCCCCCCc1ccc(cc1)O,Alfa Aesar
11769,2030462.0,,,11770.0,http://dx.doi.org/10.1021/ci0500132,123.0,N-{2-[(E)-phenyldiazenyl]phenyl}acetamide,O=C(Nc1ccccc1N=Nc1ccccc1)C,Karthikeyan M.; Glen R.C.; Bender A. General melting point prediction based on a diverse compound dataset and artificial neural networks. J. Chem. Inf. Model.; 2005; 45(3); 581-3352
19659,10334.0,,,19660.0,http://www.srcinc.com/what-we-do/product.aspx?id=133,100.5,aleuritic acid,OC(CCCCCCCC(=O)O)C(O)CCCCCCO,PHYSPROP
22873,56077.0,,,22874.0,http://www.srcinc.com/what-we-do/product.aspx?id=133,45.0,lactofen,Clc2cc(ccc2Oc1cc(C(=O)OC(C)C(=O)OCC)c(cc1)[N+]([O-])=O)C(F)(F)F,PHYSPROP
8790,2563.0,,,8791.0,http://dx.doi.org/10.1021/ci020280x,110.0,celiprolol,CCN(CC)C(=O)Nc1ccc(OCC(O)CNC(C)(C)C)c(c1)C(C)=O,Bergstrom C. A. S.; Norinder U.; Luthman K.; Artursson P. Molecular Descriptors Influencing Melting Point and Their Role in Classification of Solid Drugs. J. Chem. Inf. Comput. Sci.; (Article); 2003; 43(4); 1177-1237
1620,61094.0,,,1621.0,http://www.alfa.com/en/GP100W.pgm?DSSTK=A10272,14.0,"2,5-difluoroaniline",c1cc(c(cc1F)N)F,Alfa Aesar
4085,2556589.0,,,4086.0,http://www.alfa.com/en/GP100W.pgm?DSSTK=A18748,148.0,3-methyl-4-nitrobenzhydrazide,Cc1cc(ccc1[N+](=O)[O-])C(=O)NN,Alfa Aesar
17027,5371.0,x,salt JCB,17028.0,http://www.drugbank.ca/drugs/DB00376,258.5,Trihexyphenidyl,OC(CCN1CCCCC1)(c2ccccc2)C3CCCCC3,DrugBank
2743,18223.0,,,2744.0,http://www.alfa.com/en/GP100W.pgm?DSSTK=A14170,89.0,"2-hydroxymethyl-1,4-benzodioxane",c1ccc2c(c1)OCC(O2)CO,Alfa Aesar
22517,75.0,,,22518.0,http://www.srcinc.com/what-we-do/product.aspx?id=133,140.5,prasterone,O=C2CCC1C3CC=C4CC(O)CCC4(C)C3CCC12C,PHYSPROP
17378,31151.0,,,17379.0,http://www.srcinc.com/what-we-do/product.aspx?id=133,-8.6,1-n-propylnaphthalene,CCCc2cccc1ccccc12,PHYSPROP
12696,106993.0,,,12697.0,http://dx.doi.org/10.1021/ci0500132,178.0,"methyl 3,7-bis(acetyloxy)-12-oxocholan-24-oate",O=C1CC2C(C3CCC(C(C)CCC(=O)OC)C13C)C(OC(=O)C)CC1CC(OC(=O)C)CCC12C,Karthikeyan M.; Glen R.C.; Bender A. General melting point prediction based on a diverse compound dataset and artificial neural networks. J. Chem. Inf. Model.; 2005; 45(3); 581-4279
5607,750604.0,,,5608.0,http://www.alfa.com/en/GP100W.pgm?DSSTK=L19260,155.0,5-(2-methoxyphenyl)-1h-tetrazole,COc1ccccc1c2[nH]nnn2,Alfa Aesar
15596,12308.0,,,15597.0,http://msds.chem.ox.ac.uk/,265.0,"Benzene-1,2,4,5-tetracarbonitrile",N#Cc1cc(C#N)c(cc1C#N)C#N,academic website
10597,2034832.0,,,10598.0,http://dx.doi.org/10.1021/ci0500132,152.0,"5-(4-chlorophenyl)-3-[(4-chlorophenyl)carbonyl]-3aH-pyrrolo[3,4-d]isoxazole-4,6(5H,6aH)-dione",Clc1ccc(N2C(=O)C3ON=C(C(=O)c4ccc(Cl)cc4)C3C2=O)cc1,Karthikeyan M.; Glen R.C.; Bender A. General melting point prediction based on a diverse compound dataset and artificial neural networks. J. Chem. Inf. Model.; 2005; 45(3); 581-2180
21483,5301.0,,,21484.0,http://www.srcinc.com/what-we-do/product.aspx?id=133,156.5,tofisopam,COc1ccc(cc1OC)C3=NN=C(C)C(CC)c2cc(OC)c(cc23)OC,PHYSPROP
6332,82060.0,,,6333.0,http://www.alfa.com/en/GP100W.pgm?DSSTK=A14352,195.0,adamantane-1-carbonitrile,C1C2CC3CC1CC(C2)(C3)C#N,Alfa Aesar
1756,69139.0,,,1757.0,http://www.alfa.com/en/GP100W.pgm?DSSTK=A19983,76.0,"2,6-dichlorophenylacetonitrile",c1cc(c(c(c1)Cl)CC#N)Cl,Alfa Aesar
24033,70596.0,,,24034.0,http://www.srcinc.com/what-we-do/product.aspx?id=133,56.5,4-hydroxy-3-methoxyphenylacetonitrile,Oc1ccc(cc1OC)CC#N,PHYSPROP
761,120767.0,,,762.0,http://www.alfa.com/en/GP100W.pgm?DSSTK=H53461,81.0,"1,1,3-triphenylpropargyl alcohol",c1ccc(cc1)C#CC(c2ccccc2)(c3ccccc3)O,Alfa Aesar
11929,2029727.0,,,11930.0,http://dx.doi.org/10.1021/ci0500132,175.0,"methyl 6-methyl-4-(4-nitrophenyl)-2-thioxo-1,2,3,4-tetrahydropyrimidine-5-carboxylate",S=C1NC(C)=C(C(=O)OC)C(N1)c1ccc([N+](=O)[O-])cc1,Karthikeyan M.; Glen R.C.; Bender A. General melting point prediction based on a diverse compound dataset and artificial neural networks. J. Chem. Inf. Model.; 2005; 45(3); 581-3512
4094,2015712.0,,,4095.0,http://www.alfa.com/en/GP100W.pgm?DSSTK=B23025,161.0,3-methylbenzeneboronic acid,B(c1cccc(c1)C)(O)O,Alfa Aesar
14652,21106127.0,,,14653.0,http://www.amazon.com/dp/B003XEQTLE,38.0,1-iodo-3-nitrobenzene,Ic1cccc(c1)[N+](=O)[O-],Aldrich Chemical Company; Aldrich Catalog-Handbook of Fine Chemicals; Milwaukee; WI; 1984.
18152,16391.0,,,18153.0,http://www.srcinc.com/what-we-do/product.aspx?id=133,58.0,2-methylphenanthrene,Cc1cc2ccc3ccccc3c2cc1,PHYSPROP
27826,236.0,,,27827.0,http://www.alfa.com/content/msds/english/L14012.pdf,5.51,benzene,c1ccccc1,Alfa Aesar
18449,14826.0,,,18450.0,http://www.srcinc.com/what-we-do/product.aspx?id=133,77.0,bromociclen [inn],ClC2(Cl)C1(Cl)CC(CBr)C2(Cl)C(Cl)=C1Cl,PHYSPROP
21086,6483.0,,,21087.0,http://www.srcinc.com/what-we-do/product.aspx?id=133,15.0,"1,2-dimethyl-3-nitrobenzene",Cc1c(C)cccc1[N+](=O)[O-],PHYSPROP
15645,13835209.0,,,15646.0,http://msds.chem.ox.ac.uk/,18.0,"Butane-1,4-diol",OCCCCO,academic website
25349,630947.0,,,25350.0,http://www.srcinc.com/what-we-do/product.aspx?id=133,156.0,"urea, 1-(o-methoxyphenyl)-2-thio-",COc1ccccc1NC(N)=S,PHYSPROP
26752,21106029.0,,,26753.0,http://www.srcinc.com/what-we-do/product.aspx?id=133,2.0,3-cyclohexene-1-carboxaldehyde,O=CC1CC=CCC1,PHYSPROP
7478,62290.0,,,7479.0,http://www.alfa.com/en/GP100W.pgm?DSSTK=B22518,88.0,"methyl 2-amino-3,5-dibromobenzoate",COC(=O)c1cc(cc(c1N)Br)Br,Alfa Aesar
1261,2720021.0,,,1262.0,http://www.alfa.com/en/GP100W.pgm?DSSTK=H27668,137.0,"2,3-dichloropyridine-4-boronic acid",B(c1ccnc(c1Cl)Cl)(O)O,Alfa Aesar
21277,6147.0,,,21278.0,http://www.srcinc.com/what-we-do/product.aspx?id=133,-0.5,2-methyl-2-propanethiol,CC(C)(C)S,PHYSPROP
25181,498738.0,,,25182.0,http://www.srcinc.com/what-we-do/product.aspx?id=133,104.5,n-maleoyl-3-aminopropionic acid,OC(=O)CCN1C(=O)C=CC1=O,PHYSPROP
11157,2032860.0,,,11158.0,http://dx.doi.org/10.1021/ci0500132,220.0,"ethyl 6-methyl-4-(2-nitrophenyl)-2-oxo-1,2,3,4-tetrahydropyrimidine-5-carboxylate",O=[N+]([O-])c1ccccc1C1NC(=O)NC(C)=C1C(=O)OCC,Karthikeyan M.; Glen R.C.; Bender A. General melting point prediction based on a diverse compound dataset and artificial neural networks. J. Chem. Inf. Model.; 2005; 45(3); 581-2740
8846,61958.0,,,8847.0,http://dx.doi.org/10.1021/ci020280x,142.0,letosteine,CCOC(=O)CSCCC1NC(CS1)C(O)=O,Bergstrom C. A. S.; Norinder U.; Luthman K.; Artursson P. Molecular Descriptors Influencing Melting Point and Their Role in Classification of Solid Drugs. J. Chem. Inf. Comput. Sci.; (Article); 2003; 43(4); 1177-1293
17121,5744.0,,,17122.0,http://dx.doi.org/10.1021/ci700307p,151.0,chloramphenicol,O=[N+]([O-])c1ccc(cc1)[C@@H](O)[C@@H](CO)NC(=O)C(Cl)Cl,Hughes LD; Palmer DS; Nigsch F and Mitchell JBO. 2008 Why are some properties more difficult to predict than others? A study of QSPR models of solubility; melting point and LogP. J. Chem. Inf. Model. 2008. 48 (1). pp 220?269
20523,7611.0,,,20524.0,http://www.srcinc.com/what-we-do/product.aspx?id=133,41.0,3-chloropropionic acid,ClCCC(=O)O,PHYSPROP
23736,66325.0,,,23737.0,http://www.srcinc.com/what-we-do/product.aspx?id=133,176.0,harmony,O=S(=O)(NC(=O)Nc1nc(C)nc(OC)n1)c2ccsc2C(=O)OC,PHYSPROP
8107,21181.0,,,8108.0,http://www.alfa.com/en/GP100W.pgm?DSSTK=L09058,-26.0,N-methylvaleramide,CCCCC(=O)NC,Alfa Aesar
27550,6317.0,x,mp same as flash pt,27551.0,http://www.chemblink.com/products/78-88-6.htm,10.0,"2,3-dichloropropene",Cl/C(=C)CCl,ChemBlink
13590,100.0,,,13591.0,http://www.amazon.com/dp/B003XEQTLE,72.0,3-hydroxybenzyl_alcohol,OCc1cc(O)ccc1,Aldrich Chemical Company; Aldrich Catalog-Handbook of Fine Chemicals; Milwaukee; WI; 1984.
2781,2018342.0,,,2782.0,http://www.alfa.com/en/GP100W.pgm?DSSTK=B21237,73.0,2'-isopropylacetanilide,CC(C)c1ccccc1NC(=O)C,Alfa Aesar
25200,513622.0,,,25201.0,http://www.srcinc.com/what-we-do/product.aspx?id=133,-48.0,diisononyl phthalate,CC(C)CCCCCCOC(=O)c1ccccc1C(=O)OCCCCCCC(C)C,PHYSPROP
13618,13426.0,,,13619.0,http://www.amazon.com/dp/B002IYRJWI,-128.0,"2,3,5-trimethylhexane",CC(C)CC(C)C(C)C,American Petroleum Institute. Research Project 44; Selected Values of Properties of Hydrocarbons and Related Compounds. Texas A & M University; College Station; TX; 1973.
20396,7832.0,,,20397.0,http://www.srcinc.com/what-we-do/product.aspx?id=133,-63.0,octanoyl chloride,ClC(=O)CCCCCCC,PHYSPROP
19776,9951.0,,,19777.0,http://www.srcinc.com/what-we-do/product.aspx?id=133,160.0,indophenol,O=C2C=C/C(=Nc1ccc(O)cc1)C=C2,PHYSPROP
28591,7739.0,,,28592.0,http://www.acros.be/DesktopModules/Acros_Search_Results/Acros_Search_Results.aspx?search_type=CAS&SearchString=110-02-1,-38.0,thiophene,c1ccsc1,Acros
5115,455580.0,,,5116.0,http://www.alfa.com/en/GP100W.pgm?DSSTK=A18084,115.0,4-fluoro-3-(trifluoromethyl)benzoic acid,c1cc(c(cc1C(=O)O)C(F)(F)F)F,Alfa Aesar
14035,8071.0,,,14036.0,http://www.amazon.com/dp/B003XEQTLE,139.0,o-chlorobenzoic_acid,OC(=O)c1ccccc1Cl,Aldrich Chemical Company; Aldrich Catalog-Handbook of Fine Chemicals; Milwaukee; WI; 1984.
8010,8514.0,,,8011.0,http://www.alfa.com/en/GP100W.pgm?DSSTK=L03476,-64.0,N-butyl acrylate,CCCCOC(=O)C=C,Alfa Aesar
13628,13450.0,,,13629.0,http://www.amazon.com/dp/B002IYRJWI,-103.0,"2,6-dimethylheptane",CC(C)CCCC(C)C,American Petroleum Institute. Research Project 44; Selected Values of Properties of Hydrocarbons and Related Compounds. Texas A & M University; College Station; TX; 1973.
25917,9107782.0,,,25918.0,http://www.srcinc.com/what-we-do/product.aspx?id=133,-7.5,tert-dodecanethiol,CCCCC(S)(CCCC)CCC,PHYSPROP
28390,218253.0,x,all other sources point to 30-34 - EC,28391.0,http://www.aapspharmscitech.org/view.asp?art=pt070126,78.0,PCB-3,Clc2ccccc2c1ccccc1,Sepassi K; Yalkowsky SH; AAPS PharmSciTech; 7(1); E1-E8 (2006)
11352,2031936.0,,,11353.0,http://dx.doi.org/10.1021/ci0500132,118.0,"1,2,2-trimethyl-3-(2-phenylethyl)cyclopentanecarboxylic acid",O=C(O)C1(C)CCC(CCc2ccccc2)C1(C)C,Karthikeyan M.; Glen R.C.; Bender A. General melting point prediction based on a diverse compound dataset and artificial neural networks. J. Chem. Inf. Model.; 2005; 45(3); 581-2935
8573,553147.0,,,8574.0,http://www.alfa.com/en/GP100W.pgm?DSSTK=A14466,194.0,trans-3-hydroxycinnamic acid,c1cc(cc(c1)O)/C=C/C(=O)O,Alfa Aesar
26191,10442860.0,,,26192.0,http://www.srcinc.com/what-we-do/product.aspx?id=133,181.5,"1-(2-methoxy),2-dibenzoyl-1-tert-butylhydrazine",COc2ccccc2C(=O)N(NC(=O)c1ccccc1)C(C)(C)C,PHYSPROP
23658,64310.0,,,23659.0,http://www.srcinc.com/what-we-do/product.aspx?id=133,157.0,fencibutirol,OC1(CCC(CC1)c2ccccc2)C(CC)C(=O)O,PHYSPROP
14059,13882337.0,,,14060.0,http://www.amazon.com/dp/B003XEQTLE,-16.0,"a,a-dichlorotoluene",ClC(Cl)c1ccccc1,Aldrich Chemical Company; Aldrich Catalog-Handbook of Fine Chemicals; Milwaukee; WI; 1984.
26005,10438327.0,,,26006.0,http://www.srcinc.com/what-we-do/product.aspx?id=133,222.0,"4h-thieno[2,3-b]thiopyran-2-sulfonamide, 5,6-dih",NS(=O)(=O)c1cc2c(s1)SCCC2=O,PHYSPROP
16980,3399.0,,,16981.0,http://www.drugbank.ca/drugs/DB01018,226.0,Guanfacine,Clc1cccc(Cl)c1CC(=O)NC(=N)N,DrugBank
9853,4644625.0,,,9854.0,http://dx.doi.org/10.1021/ci0500132,204.0,"1,3-bis[(E)-2-nitroethenyl]benzene",O=[N+]([O-])C=Cc1cccc(c1)C=C[N+](=O)[O-],Karthikeyan M.; Glen R.C.; Bender A. General melting point prediction based on a diverse compound dataset and artificial neural networks. J. Chem. Inf. Model.; 2005; 45(3); 581-1436