,csid,donotuse,donotusebecause,key,link,mpC,name,smiles,source
25356,643086.0,,,25357.0,http://www.srcinc.com/what-we-do/product.aspx?id=133,39.5,"3-buten-2-one, 4-(2-furanyl)-",O=C(C)/C=C/c1ccco1,PHYSPROP
9923,4590614.0,,,9924.0,http://dx.doi.org/10.1021/ci0500132,133.0,(4-chlorophenyl)(phenyl)methanone oxime,Clc1ccc(cc1)C(=NO)c1ccccc1,Karthikeyan M.; Glen R.C.; Bender A. General melting point prediction based on a diverse compound dataset and artificial neural networks. J. Chem. Inf. Model.; 2005; 45(3); 581-1506
10236,2072970.0,,,10237.0,http://dx.doi.org/10.1021/ci0500132,86.0,"benzyl 1,3,6-trimethyl-2-oxo-4-phenyl-1,2,3,4-tetrahydropyrimidine-5-carboxylate",O=C1N(C)C(C)=C(C(=O)OCc2ccccc2)C(N1C)c1ccccc1,Karthikeyan M.; Glen R.C.; Bender A. General melting point prediction based on a diverse compound dataset and artificial neural networks. J. Chem. Inf. Model.; 2005; 45(3); 581-1819
7416,559211.0,,,7417.0,http://www.alfa.com/en/GP100W.pgm?DSSTK=B21583,110.0,L-lyxose,C([C@@H]([C@H]([C@H](C=O)O)O)O)O,Alfa Aesar
14339,62291.0,,,14340.0,http://www.amazon.com/dp/B003XEQTLE,133.0,"2,6-dinitroaniline",O=[N+]([O-])c1cccc([N+]([O-])=O)c1N,Aldrich Chemical Company; Aldrich Catalog-Handbook of Fine Chemicals; Milwaukee; WI; 1984.
7337,76792.0,,,7338.0,http://www.alfa.com/en/GP100W.pgm?DSSTK=L20099,130.0,indole-6-carbonitrile,c1cc(cc2c1cc[nH]2)C#N,Alfa Aesar
5965,8381.0,,,5966.0,http://www.alfa.com/en/GP100W.pgm?DSSTK=A10615,81.0,5-methyl-1h-benzotriazole,Cc1ccc2c(c1)nn[nH]2,Alfa Aesar
16955,5137.0,,,16956.0,http://www.drugbank.ca/drugs/DB00576,208.0,Sulfamethizole,Cc2nnc(NS(=O)(=O)c1ccc(N)cc1)s2,DrugBank
14233,6481.0,,,14234.0,http://www.amazon.com/dp/B003XEQTLE,71.0,"2,6-dichlorobenzaldehyde",O=Cc1c(Cl)cccc1Cl,Aldrich Chemical Company; Aldrich Catalog-Handbook of Fine Chemicals; Milwaukee; WI; 1984.
22174,2112.0,,,22175.0,http://www.srcinc.com/what-we-do/product.aspx?id=133,156.5,"1h-indene-1,3(2h)-dione, 2-(4-methoxyphenyl)-",COc1ccc(cc1)C3C(=O)c2ccccc2C3=O,PHYSPROP
976,526015.0,,,977.0,http://www.alfa.com/en/GP100W.pgm?DSSTK=B21533,184.0,2-(4-fluorophenoxy)nicotinic acid,c1cc(c(nc1)Oc2ccc(cc2)F)C(=O)O,Alfa Aesar
302,6307.0,,,303.0,http://www.alfa.com/en/GP100W.pgm?DSSTK=B23854,-118.0,1-bromo-2-methylpropane,CC(C)CBr,Alfa Aesar
27440,60839.0,,,27441.0,http://tinyurl.com/3r488ry,24.0,"1,2,3-triazole",c1cnn[nH]1,Sigma-Aldrich
15928,7905.0,,,15929.0,http://msds.chem.ox.ac.uk/,-40.0,"N-(2-Aminoethyl)-N'-{2-[(2-aminoethyl)amino]ethyl}ethane-1,2-diamine",NCCNCCNCCNCCN,academic website
12155,2010717.0,,,12156.0,http://dx.doi.org/10.1021/ci0500132,216.0,"1,4,6-trimethyl-1H-pyrazolo[3,4-b]pyridin-3-ol",O=C1NN(C)c2[nH0]c(C)cc(C)c21,Karthikeyan M.; Glen R.C.; Bender A. General melting point prediction based on a diverse compound dataset and artificial neural networks. J. Chem. Inf. Model.; 2005; 45(3); 581-3738
5770,714293.0,,,5771.0,http://www.alfa.com/en/GP100W.pgm?DSSTK=L19748,149.0,5-bromo-2-nitropyridine,c1cc(ncc1Br)[N+](=O)[O-],Alfa Aesar
5188,2055483.0,,,5189.0,http://www.alfa.com/en/GP100W.pgm?DSSTK=H26127,160.0,4-hydroxy-2-(trifluoromethyl)benzoic acid,c1cc(c(cc1O)C(F)(F)F)C(=O)O,Alfa Aesar
3970,2016108.0,,,3971.0,http://www.alfa.com/en/GP100W.pgm?DSSTK=B25437,111.0,3-formylbenzeneboronic acid,B(c1cccc(c1)C=O)(O)O,Alfa Aesar
15676,2809.0,,,15677.0,http://msds.chem.ox.ac.uk/,68.5,"Cyano(3-phenoxyphenyl)methyl 3-(2,2-dichlorovinyl)-2,2-dimethylcyclopropanecarboxylate",Cl/C(Cl)=C/C3C(C(=O)OC(C#N)c2cccc(Oc1ccccc1)c2)C3(C)C,academic website
7713,7674.0,,,7714.0,http://www.alfa.com/en/GP100W.pgm?DSSTK=31861,-126.0,methylcyclohexane,CC1CCCCC1,Alfa Aesar
10539,2035437.0,,,10540.0,http://dx.doi.org/10.1021/ci0500132,128.0,"5-[(4-methoxyphenyl)hydrazono]-2,2-dimethyl-1,3-dioxane-4,6-dione",O=C1OC(OC(=O)C1=NNc1ccc(OC)cc1)(C)C,Karthikeyan M.; Glen R.C.; Bender A. General melting point prediction based on a diverse compound dataset and artificial neural networks. J. Chem. Inf. Model.; 2005; 45(3); 581-2122
17584,25724.0,,,17585.0,http://www.srcinc.com/what-we-do/product.aspx?id=133,224.0,iocetamic acid,O=C(O)C(C)CN(C(C)=O)c1c(I)cc(I)c(N)c1I,PHYSPROP
4779,65689.0,,,4780.0,http://www.alfa.com/en/GP100W.pgm?DSSTK=L17510,59.0,4-bromo-3-methylphenol,Cc1cc(ccc1Br)O,Alfa Aesar
24187,73658.0,,,24188.0,http://www.srcinc.com/what-we-do/product.aspx?id=133,15.0,"1,4-piperazinedipropanamine",NCCCN1CCN(CCCN)CC1,PHYSPROP
10286,2036584.0,,,10287.0,http://dx.doi.org/10.1021/ci0500132,139.0,"ethyl 1-methyl-4-oxo-2,3,4,7-tetrahydro-1H-pyrazolo[3,4-b]pyridine-5-carboxylate",O=C1C=2CNN(C)C=2N=CC1=C(O)OCC,Karthikeyan M.; Glen R.C.; Bender A. General melting point prediction based on a diverse compound dataset and artificial neural networks. J. Chem. Inf. Model.; 2005; 45(3); 581-1869
9361,5258443.0,,,9362.0,http://dx.doi.org/10.1021/ci0500132,193.0,"4-{[(E)-(4-Nitrophenyl)methylene]amino}-5-(trifluoromethyl)-2,4-dihydro-3H-1,2,4-triazole-3-thione",Sc1[nH0][nH0]c([nH0]1N=Cc1ccc([N+](=O)[O-])cc1)C(F)(F)F,Karthikeyan M.; Glen R.C.; Bender A. General melting point prediction based on a diverse compound dataset and artificial neural networks. J. Chem. Inf. Model.; 2005; 45(3); 581-944
7378,7627.0,,,7379.0,http://www.alfa.com/en/GP100W.pgm?DSSTK=L09337,-73.0,isopropyl acetate,CC(C)OC(=O)C,Alfa Aesar
28484,4444059.0,,,28485.0,http://dx.doi.org/10.1080/10629360701430124,67.0,prostaglandin E2,O=C1C[C@@H](O)[C@H](/C=C/[C@@H](O)CCCCC)[C@H]1C\C=C/CCCC(=O)O,RAEVSKY OA; PERLOVICH GL and SCHAPER K-J. Physicochemical properties/descriptors governing the solubility and partitioning of chemicals in water-solvent-gas systems. Part 2. Solubility in 1-octanol. SAR and QSAR in Environmental Research Vol. 18 Nos. 5–6 July–September 2007 543–578
9928,4553190.0,,,9929.0,http://dx.doi.org/10.1021/ci0500132,156.0,Ethyl (2Z)-cyano[(3-nitrophenyl)hydrazono]acetate,O=[N+]([O-])c1cccc(NN=C(C#N)C(=O)OCC)c1,Karthikeyan M.; Glen R.C.; Bender A. General melting point prediction based on a diverse compound dataset and artificial neural networks. J. Chem. Inf. Model.; 2005; 45(3); 581-1511
1285,123798.0,,,1286.0,http://www.alfa.com/en/GP100W.pgm?DSSTK=B20542,116.0,"2,3-difluorobenzamide",c1cc(c(c(c1)F)F)C(=O)N,Alfa Aesar
27467,4578417.0,,,27468.0,,190.5,"1,3-Bis(4-hydroxyphenyl)-2-propen-1-one",OC1=CC=C(C=C1)C(C=CC2=CC=C(C=C2)O)=O,Medicinal Chemistry Research
26039,10439207.0,,,26040.0,http://www.srcinc.com/what-we-do/product.aspx?id=133,86.0,"benzenesulfonamide, 4-(5-hydroxypentyl)-",O=S(N)(=O)c1ccc(CCCCCO)cc1,PHYSPROP
27707,2927.0,,,27708.0,http://dx.doi.org/10.1016/j.chemosphere.2013.10.095,89.0,"4,4'-DDE",C1=CC(=CC=C1C(=C(Cl)Cl)C2=CC=C(C=C2)Cl)Cl,Abraham M.H. and Acree Jr. W.E. The solubility of liquid and solid compounds in dry octan-1-ol. Chemosphere (2013)
1842,10918.0,,,1843.0,http://www.alfa.com/en/GP100W.pgm?DSSTK=B21704,97.0,"2,7-dimethylnaphthalene",Cc1ccc2ccc(cc2c1)C,Alfa Aesar
17171,5994.0,,,17172.0,http://dx.doi.org/10.1021/ci700307p,203.5,norethindrone,O=C4CC[C@H]3C(CC[C@@H]2[C@@H]3CC[C@@]1(C)[C@H]2CC[C@@]1(O)C#C)=C4,Hughes LD; Palmer DS; Nigsch F and Mitchell JBO. 2008 Why are some properties more difficult to predict than others? A study of QSPR models of solubility; melting point and LogP. J. Chem. Inf. Model. 2008. 48 (1). pp 220?319
5542,12696.0,,,5543.0,http://www.alfa.com/en/GP100W.pgm?DSSTK=A18489,84.0,4-phenoxyphenol,c1ccc(cc1)Oc2ccc(cc2)O,Alfa Aesar
1122,4344547.0,,,1123.0,http://www.alfa.com/en/GP100W.pgm?DSSTK=H27695,242.0,"2,2'-dichloro-4,4'-bipyridine",c1cnc(cc1c2ccnc(c2)Cl)Cl,Alfa Aesar
2594,2043532.0,,,2595.0,http://www.alfa.com/en/GP100W.pgm?DSSTK=H31697,148.0,2-fluoro-4-hydroxypyridine,c1cnc(cc1O)F,Alfa Aesar
5477,5378372.0,,,5478.0,http://www.alfa.com/en/GP100W.pgm?DSSTK=L08058,50.0,4-nitrobenzyl bromoacetate,c1cc(ccc1COC(=O)CBr)[N+](=O)[O-],Alfa Aesar
7389,256210.0,,,7390.0,http://www.alfa.com/en/GP100W.pgm?DSSTK=A19738,104.0,isoquinoline n-oxide,c1ccc2c[n+](ccc2c1)[O-],Alfa Aesar
21253,6178.0,,,21254.0,http://www.srcinc.com/what-we-do/product.aspx?id=133,-5.0,dalapon,CC(Cl)(Cl)C(=O)O,PHYSPROP
24602,92540.0,,,24603.0,http://www.srcinc.com/what-we-do/product.aspx?id=133,85.0,"propane, 1-chloro-1,2,2,3,3-pentafluoro-",FC(F)C(F)(F)C(Cl)F,PHYSPROP
19325,11283.0,,,19326.0,http://www.srcinc.com/what-we-do/product.aspx?id=133,80.0,triphenylphosphine,c1ccccc1P(c2ccccc2)c3ccccc3,PHYSPROP
15766,7890.0,,,15767.0,http://msds.chem.ox.ac.uk/,-9.6,Dodecane,CCCCCCCCCCCC,academic website
4510,66399.0,,,4511.0,http://www.alfa.com/en/GP100W.pgm?DSSTK=A10360,226.0,4-acetamido-3-nitrobenzoic acid,CC(=O)Nc1ccc(cc1[N+](=O)[O-])C(=O)O,Alfa Aesar
3846,86777.0,,,3847.0,http://www.alfa.com/en/GP100W.pgm?DSSTK=H27494,123.0,3-chlorocoumarin,c1ccc2c(c1)cc(c(=O)o2)Cl,Alfa Aesar
9319,7855421.0,,,9320.0,http://dx.doi.org/10.1021/ci0500132,128.0,"(2E)-2-[4-(2-methyl-1,2,3,4-tetrahydroquinolin-7-yl)butan-2-ylidene]hydrazinecarboxamide",O=C(N)NN=C(C)CCc1ccc2CCC(Nc2c1)C,Karthikeyan M.; Glen R.C.; Bender A. General melting point prediction based on a diverse compound dataset and artificial neural networks. J. Chem. Inf. Model.; 2005; 45(3); 581-902
25383,1266027.0,,,25384.0,http://www.srcinc.com/what-we-do/product.aspx?id=133,21.35,anethole (trans),COc1ccc(/C=CC)cc1,PHYSPROP
1061,2016139.0,,,1062.0,http://www.alfa.com/en/GP100W.pgm?DSSTK=B24343,109.0,2-(trifluoromethyl)benzeneboronic acid,B(c1ccccc1C(F)(F)F)(O)O,Alfa Aesar
26614,13869655.0,,,26615.0,http://www.srcinc.com/what-we-do/product.aspx?id=133,50.0,"2,5-dichloroaniline",Clc1ccc(Cl)c(N)c1,PHYSPROP
8623,8158.0,,,8624.0,http://www.alfa.com/en/GP100W.pgm?DSSTK=12391,-115.0,triethylamine,CCN(CC)CC,Alfa Aesar
25986,10415644.0,,,25987.0,http://www.srcinc.com/what-we-do/product.aspx?id=133,-60.0,dimethyl phosphite,O=P(OC)OC,PHYSPROP
27378,4526395.0,,,27379.0,http://onlinelibrary.wiley.com/doi/10.1002/chem.201000883/suppinfo,167.0,(2E)-3-(4-Nitrophenyl)-1-phenyl-2-propen-1-one,[N+](=O)([O-])C1=CC=C(C=C1)\C=C\C(=O)C2=CC=CC=C2,Chemistry--A European Journal
24688,109441.0,,,24689.0,http://www.srcinc.com/what-we-do/product.aspx?id=133,152.0,1-methyl-4-carboxy-2-pyrrolidone,O=C1CC(CN1C)C(O)=O,PHYSPROP
28029,10771217.0,,,28030.0,http://www.chemexper.com/search/cas/79436.html,10.0,dichloroacetic acid,ClC(Cl)C(O)=O,ChemExper
26475,13837584.0,,,26476.0,http://www.srcinc.com/what-we-do/product.aspx?id=133,-10.0,dibutyl sebacate,O=C(CCCCCCCCC(=O)OCCCC)OCCCC,PHYSPROP
17448,29062.0,,,17449.0,http://www.srcinc.com/what-we-do/product.aspx?id=133,170.5,pleuromutilin,OCC(=O)OC3CC(C)(C=C)C(O)C(C)C21CCC(=O)C1C3(C)C(C)CC2,PHYSPROP
22595,35064.0,,,22596.0,http://www.srcinc.com/what-we-do/product.aspx?id=133,238.0,"1,2,4,6,7,9-hexachlorodibenzo-p-dioxin",Clc2cc(Cl)c(Cl)c1Oc3c(Cl)cc(Cl)c(Cl)c3Oc12,PHYSPROP
2064,6554.0,,,2065.0,http://www.alfa.com/en/GP100W.pgm?DSSTK=A13281,129.0,2-benzoylbenzoic acid,c1ccc(cc1)C(=O)c2ccccc2C(=O)O,Alfa Aesar
17749,21844.0,,,17750.0,http://www.srcinc.com/what-we-do/product.aspx?id=133,81.0,3-methyl-4-bromoaniline,Nc1ccc(Br)c(C)c1,PHYSPROP
9542,4680497.0,,,9543.0,http://dx.doi.org/10.1021/ci0500132,223.0,5-(4-Methoxy-benzylidene)-3-piperidin-1-ylmethyl-2-thioxo-thiazolidin-4-one,S=C1SC(=Cc2ccc(OC)cc2)C(=O)N1CN1CCCCC1,Karthikeyan M.; Glen R.C.; Bender A. General melting point prediction based on a diverse compound dataset and artificial neural networks. J. Chem. Inf. Model.; 2005; 45(3); 581-1125
9660,4645442.0,,,9661.0,http://dx.doi.org/10.1021/ci0500132,171.0,"(2Z)-2-[4-(4-chlorophenyl)-1,3-thiazol-2-yl]-3-thiophen-2-ylprop-2-enenitrile",Clc1ccc(cc1)c1[nH0]c(sc1)C(C#N)=Cc1sccc1,Karthikeyan M.; Glen R.C.; Bender A. General melting point prediction based on a diverse compound dataset and artificial neural networks. J. Chem. Inf. Model.; 2005; 45(3); 581-1243
4355,2057681.0,,,4356.0,http://www.alfa.com/en/GP100W.pgm?DSSTK=A12907,31.0,4-(trifluoromethyl)benzenesulfonyl chloride,c1cc(ccc1C(F)(F)F)S(=O)(=O)Cl,Alfa Aesar
1480,30920.0,,,1481.0,http://www.alfa.com/en/GP100W.pgm?DSSTK=L20040,-1.0,"2,4-dichloropyridine",c1cnc(cc1Cl)Cl,Alfa Aesar
24341,80791.0,,,24342.0,http://www.srcinc.com/what-we-do/product.aspx?id=133,-81.0,"4-heptanol, 2-methyl-",CC(C)CC(O)CCC,PHYSPROP
8324,9571.0,,,8325.0,http://www.alfa.com/en/GP100W.pgm?DSSTK=L12204,41.0,p-toluenesulfonyl fluoride,Cc1ccc(cc1)S(=O)(=O)F,Alfa Aesar
27772,28714.0,,,27773.0,http://dx.doi.org/10.1016/j.chemosphere.2013.10.095,92.0,Alclofenac,C=CCOC1=C(C=C(C=C1)CC(=O)O)Cl,Abraham M.H. and Acree Jr. W.E. The solubility of liquid and solid compounds in dry octan-1-ol. Chemosphere (2013)
6580,6092.0,,,6581.0,http://www.alfa.com/en/GP100W.pgm?DSSTK=A12804,-119.0,bromoethane,CCBr,Alfa Aesar
20105,8579.0,,,20106.0,http://www.srcinc.com/what-we-do/product.aspx?id=133,-9.5,1-bromo-n-dodecane,BrCCCCCCCCCCCC,PHYSPROP
13989,10181338.0,,,13990.0,http://www.amazon.com/dp/B003XEQTLE,184.0,p-anisic_acid,COc1ccc(cc1)C(=O)O,Aldrich Chemical Company; Aldrich Catalog-Handbook of Fine Chemicals; Milwaukee; WI; 1984.
2472,163558.0,,,2473.0,http://www.alfa.com/en/GP100W.pgm?DSSTK=L05256,79.0,2-chloroethyl p-tolyl sulfone,Cc1ccc(cc1)S(=O)(=O)CCCl,Alfa Aesar
27748,6102.0,,,27749.0,http://www.wolframalpha.com/input/?i=acetonitrile,-48.0,acetonitrile,CC#N,Wolfram Alpha
27376,4526395.0,,,27377.0,http://www.springerlink.com/content/8360777212q3g258/fulltext.pdf,164.0,(2E)-3-(4-Nitrophenyl)-1-phenyl-2-propen-1-one,[N+](=O)([O-])C1=CC=C(C=C1)\C=C\C(=O)C2=CC=CC=C2,Medicinal Chemistry Research
19507,10831.0,,,19508.0,http://www.srcinc.com/what-we-do/product.aspx?id=133,82.0,"1,5-dimethylnaphthalene",Cc2cccc1c2cccc1C,PHYSPROP
8496,13028.0,,,8497.0,http://www.alfa.com/en/GP100W.pgm?DSSTK=A16297,114.0,"tetramethylcyclobutane-1,3-dione",CC1(C(=O)C(C1=O)(C)C)C,Alfa Aesar
23604,63757.0,,,23605.0,http://www.srcinc.com/what-we-do/product.aspx?id=133,192.0,"3-(2-pyridyl)-5,6-diphenyl-1,2,4-triazine",c1cc(ccc1)c2nnc(nc2c3ccccc3)c4ccccn4,PHYSPROP
27431,0.0,,,27432.0,http://www.beilstein-journals.org/bjoc/single/articleFullText.htm?publicId=1860-5397-8-29&vt=f&bpn=home,50.5,"1,2-Bis(tert-butoxycarbonyl)-1-(3,4,5-tridecylsulfanylphenyl)hydrazine",C(C)(C)(C)OC(=O)N(NC(=O)OC(C)(C)C)C1=CC(=C(C(=C1)SCCCCCCCCCC)SCCCCCCCCCC)SCCCCCCCCCC,Beilstein Journal of Organic Chemistry
21022,6628.0,,,21023.0,http://www.srcinc.com/what-we-do/product.aspx?id=133,1.0,2-methyl-3-chloroaniline,Nc1cccc(Cl)c1C,PHYSPROP
24080,71384.0,,,24081.0,http://www.srcinc.com/what-we-do/product.aspx?id=133,50.0,hexadecan-3-ol,CCC(O)CCCCCCCCCCCCC,PHYSPROP
6834,275761.0,,,6835.0,http://www.alfa.com/en/GP100W.pgm?DSSTK=A13677,50.0,diethyl bis(hydroxymethyl)malonate,CCOC(=O)C(CO)(CO)C(=O)OCC,Alfa Aesar
18207,16094.0,,,18208.0,http://www.srcinc.com/what-we-do/product.aspx?id=133,66.0,"2,3-dichloropyridine",Clc1cccnc1Cl,PHYSPROP
14579,120876.0,,,14580.0,http://www.amazon.com/dp/B002IYRJWI,-12.0,"1,1-diphenylpentane",CCCCC(c1ccccc1)c2ccccc2,American Petroleum Institute. Research Project 44; Selected Values of Properties of Hydrocarbons and Related Compounds. Texas A & M University; College Station; TX; 1973.
27846,238.0,,,27847.0,http://books.google.com/books?id=kEYfRAAACAAJ,122.4,benzoic acid,c1ccc(cc1)C(=O)O,Merck Index
17791,21040.0,,,17792.0,http://www.srcinc.com/what-we-do/product.aspx?id=133,156.0,c.i. disperse dye,[O-][N+](=O)c2ccc(/N=N/c1ccc(cc1C)N(CCC#N)CCO)cc2,PHYSPROP
27572,21642.0,,,27573.0,http://dx.doi.org/10.1080/10629360701430124,82.4,"2,4,5-trichlorotoluene",Clc1cc(c(Cl)cc1Cl)C,RAEVSKY OA; PERLOVICH GL and SCHAPER K-J. Physicochemical properties/descriptors governing the solubility and partitioning of chemicals in water-solvent-gas systems. Part 2. Solubility in 1-octanol. SAR and QSAR in Environmental Research Vol. 18 Nos. 5–6 July–September 2007 543–578
21042,6588.0,,,21043.0,http://www.srcinc.com/what-we-do/product.aspx?id=133,61.0,1-nitronaphthalene,[O-][N+](=O)c2cccc1ccccc12,PHYSPROP
313,10957.0,,,314.0,http://www.alfa.com/en/GP100W.pgm?DSSTK=B22867,72.0,"1-bromo-2,4-dinitrobenzene",c1cc(c(cc1[N+](=O)[O-])[N+](=O)[O-])Br,Alfa Aesar
5741,716779.0,,,5742.0,http://www.alfa.com/en/GP100W.pgm?DSSTK=B25452,57.0,5-bromo-2-chlorophenol,c1cc(c(cc1Br)O)Cl,Alfa Aesar
4872,4196741.0,,,4873.0,http://www.alfa.com/en/GP100W.pgm?DSSTK=B23688,194.0,4-chloro-2-methylbenzeneboronic acid,B(c1ccc(cc1C)Cl)(O)O,Alfa Aesar
6120,154274.0,,,6121.0,http://www.alfa.com/en/GP100W.pgm?DSSTK=L19285,48.0,6-chloropyridine-3-methanol,c1cc(ncc1CO)Cl,Alfa Aesar
2107,5379338.0,,,2108.0,http://www.alfa.com/en/GP100W.pgm?DSSTK=L20012,60.0,2-bromo-3-chloropyridine,c1cc(c(nc1)Br)Cl,Alfa Aesar
5006,21472622.0,,,5007.0,http://www.alfa.com/en/GP100W.pgm?DSSTK=H31065,79.0,4-cyano-2-iodopyridine,c1cnc(cc1C#N)I,Alfa Aesar
15634,7556.0,,,15635.0,http://msds.chem.ox.ac.uk/,-185.0,But-1-ene,C=CCC,academic website
5625,2055109.0,,,5626.0,http://www.alfa.com/en/GP100W.pgm?DSSTK=H26188,55.0,5-(4-fluorophenyl)isoxazole,c1cc(ccc1c2ccno2)F,Alfa Aesar
15056,1348.0,x,other methyl and dimethylimidazole isomers all above rt so -60C value seems unlikely JCB,15057.0,http://msds.chem.ox.ac.uk/,-60.0,1-Methyl-1H-imidazole,Cn1ccnc1,academic website
10028,4284981.0,,,10029.0,http://dx.doi.org/10.1021/ci0500132,176.0,"14-hydroxy-3,3-dimethoxy-5-methylandrostan-17-one",O=C1CCC2(O)C3CCC4(C)CC(OC)(OC)CCC4(C)C3CCC12C,Karthikeyan M.; Glen R.C.; Bender A. General melting point prediction based on a diverse compound dataset and artificial neural networks. J. Chem. Inf. Model.; 2005; 45(3); 581-1611
3860,2063397.0,,,3861.0,http://www.alfa.com/en/GP100W.pgm?DSSTK=L19538,29.0,3-cyano-2-fluoropyridine,c1cc(c(nc1)F)C#N,Alfa Aesar
27087,5259039.0,,,27088.0,http://scripts.iucr.org/cgi-bin/paper?rz6147,174.85,(2E)-2-(Hydroxyimino)-N-phenylacetamide,O=C(Nc1ccccc1)C=NO,IUCr
5338,203494.0,,,5339.0,http://www.alfa.com/en/GP100W.pgm?DSSTK=A15973,128.0,4-methoxybenzoylacetonitrile,COc1ccc(cc1)C(=O)CC#N,Alfa Aesar
23940,68907.0,,,23941.0,http://www.srcinc.com/what-we-do/product.aspx?id=133,33.0,2-(trifluoromethyl)phenylacetonitrile,FC(F)(F)c1ccccc1CC#N,PHYSPROP
20423,7787.0,,,20424.0,http://www.srcinc.com/what-we-do/product.aspx?id=133,6.6,cyclohexane,C1CCCCC1,PHYSPROP
22161,2172.0,,,22162.0,http://www.srcinc.com/what-we-do/product.aspx?id=133,300.0,aurintricarboxylic acid,OC(=O)C1=CC(C=CC1=O)=C(/c2ccc(O)c(c2)C(=O)O)c3ccc(O)c(c3)C(=O)O,PHYSPROP
5502,4500.0,,,5503.0,http://www.alfa.com/en/GP100W.pgm?DSSTK=A15901,154.0,4-nitrophenylacetic acid,c1cc(ccc1CC(=O)O)[N+](=O)[O-],Alfa Aesar
8638,2015216.0,,,8639.0,http://www.alfa.com/en/GP100W.pgm?DSSTK=B21116,187.0,trimesitylphosphine,Cc1cc(c(c(c1)C)P(c2c(cc(cc2C)C)C)c3c(cc(cc3C)C)C)C,Alfa Aesar
14272,6705.0,,,14273.0,http://www.amazon.com/dp/B003XEQTLE,184.0,n-acetylanthranilic_acid,O=C(C)Nc1ccccc1C(=O)O,Aldrich Chemical Company; Aldrich Catalog-Handbook of Fine Chemicals; Milwaukee; WI; 1984.
17018,23731.0,,,17019.0,http://www.drugbank.ca/drugs/DB00720,250.0,Clodronate,ClC(Cl)(P(O)(=O)O)P(=O)(O)O,DrugBank
23751,66460.0,,,23752.0,http://www.srcinc.com/what-we-do/product.aspx?id=133,65.5,"oxanilic acid,ethyl ester",O=C(Nc1ccccc1)C(=O)OCC,PHYSPROP
14527,21171393.0,,,14528.0,http://www.amazon.com/dp/B003XEQTLE,16.0,1-bromo-4-tert-butylbenzene,CC(C)(C)c1ccc(Br)cc1,Aldrich Chemical Company; Aldrich Catalog-Handbook of Fine Chemicals; Milwaukee; WI; 1984.
16116,5091.0,,,16117.0,http://msds.chem.ox.ac.uk/,68.0,Stearic acid,O=C(O)CCCCCCCCCCCCCCCCC,academic website
9606,4645636.0,,,9607.0,http://dx.doi.org/10.1021/ci0500132,123.0,(2E)-1-(5-methylfuran-2-yl)-3-(5-phenylfuran-2-yl)prop-2-en-1-one,O=C(C=Cc1oc(cc1)c1ccccc1)c1oc(C)cc1,Karthikeyan M.; Glen R.C.; Bender A. General melting point prediction based on a diverse compound dataset and artificial neural networks. J. Chem. Inf. Model.; 2005; 45(3); 581-1189
27769,5735.0,,,27770.0,http://www.alfa.com/en/GP100w.pgm?DSSTK=A15804,295.0,alanine,C[C@@H](C(=O)O)N,Alfa Aesar