,csid,donotuse,donotusebecause,key,link,mpC,name,smiles,source
21693,4380.0,,,21694.0,http://www.srcinc.com/what-we-do/product.aspx?id=133,227.5,norfloxacin,O=C(O)C2=CN(CC)c1cc(c(F)cc1C2=O)N3CCNCC3,PHYSPROP
12869,28460.0,,,12870.0,http://dx.doi.org/10.1021/ci0500132,126.0,"2-(a-(2,6-Dichlorophenoxy)ethyl)2-imidazoline",Clc1cccc(Cl)c1OC(C)C1=NCCN1,Karthikeyan M.; Glen R.C.; Bender A. General melting point prediction based on a diverse compound dataset and artificial neural networks. J. Chem. Inf. Model.; 2005; 45(3); 581-4452
1210,63065.0,,,1211.0,http://www.alfa.com/en/GP100W.pgm?DSSTK=A17088,169.0,"2,3,5,6-tetrafluorohydroquinone",c1(c(c(c(c(c1F)F)O)F)F)O,Alfa Aesar
12499,311775.0,,,12500.0,http://dx.doi.org/10.1021/ci0500132,149.0,"benzamide, N-methyl-3,5-dinitro-",O=[N+]([O-])c1cc([N+](=O)[O-])cc(c1)C(=O)NC,Karthikeyan M.; Glen R.C.; Bender A. General melting point prediction based on a diverse compound dataset and artificial neural networks. J. Chem. Inf. Model.; 2005; 45(3); 581-4082
1780,67268.0,,,1781.0,http://www.alfa.com/en/GP100W.pgm?DSSTK=A10454,30.0,"2,6-difluorobenzonitrile",c1cc(c(c(c1)F)C#N)F,Alfa Aesar
12182,1476498.0,,,12183.0,http://dx.doi.org/10.1021/ci0500132,210.0,"(4E)-4-{[5-(2-Nitrophenyl)-2-furyl]methylene}-2-phenyl-1,3-oxazol-5(4H)-one",O=[N+]([O-])c1ccccc1c1oc(cc1)C=C1N=C(OC1=O)c1ccccc1,Karthikeyan M.; Glen R.C.; Bender A. General melting point prediction based on a diverse compound dataset and artificial neural networks. J. Chem. Inf. Model.; 2005; 45(3); 581-3765
24827,155056.0,,,24828.0,http://www.srcinc.com/what-we-do/product.aspx?id=133,129.0,pyribenzoxim,COc1nc(nc(OC)c1)Oc5cccc(Oc2nc(cc(OC)n2)OC)c5C(=O)ON=C(/c3ccccc3)c4ccccc4,PHYSPROP
18209,16088.0,,,18210.0,http://www.srcinc.com/what-we-do/product.aspx?id=133,31.4,4-phenyleicosane,CCCC(CCCCCCCCCCCCCCCC)c1ccccc1,PHYSPROP
20227,8174.0,,,20228.0,http://www.srcinc.com/what-we-do/product.aspx?id=133,96.0,m-hydroxyacetophenone,O=C(C)c1cc(O)ccc1,PHYSPROP
22368,810.0,,,22369.0,http://www.srcinc.com/what-we-do/product.aspx?id=133,235.5,"l-ornithine, n5-(aminocarbonyl)-",NC(CCCNC(N)=O)C(=O)O,PHYSPROP
4220,83482.0,,,4221.0,http://www.alfa.com/en/GP100W.pgm?DSSTK=B20122,221.0,4-(1-piperazinyl)phenol,c1cc(ccc1N2CCNCC2)O,Alfa Aesar
4240,20475144.0,,,4241.0,http://www.alfa.com/en/GP100W.pgm?DSSTK=B23789,109.0,"4-(2-pyridylazo)-n,n-dimethylaniline",CN(C)c1ccc(cc1)N=Nc2ccccn2,Alfa Aesar
1858,6887.0,,,1859.0,http://www.alfa.com/en/GP100W.pgm?DSSTK=L02812,105.0,2-acetoacetotoluidide,Cc1ccccc1NC(=O)CC(=O)C,Alfa Aesar
3759,2055142.0,,,3760.0,http://www.alfa.com/en/GP100W.pgm?DSSTK=A15988,131.0,"3-chloro-2,6-dimethoxy-5-nitrobenzoic acid",COc1c(cc(c(c1C(=O)O)OC)Cl)[N+](=O)[O-],Alfa Aesar
23567,63439.0,,,23568.0,http://www.srcinc.com/what-we-do/product.aspx?id=133,49.0,"1,3-dithiole-2-thione",S=C1SC=CS1,PHYSPROP
12379,549937.0,,,12380.0,http://dx.doi.org/10.1021/ci0500132,141.0,"3,5-dihydroxycholestan-6-yl acetate",O=C(OC1CC2C3CCC(C(C)CCCC(C)C)C3(C)CCC2C2(C)CCC(O)CC12O)C,Karthikeyan M.; Glen R.C.; Bender A. General melting point prediction based on a diverse compound dataset and artificial neural networks. J. Chem. Inf. Model.; 2005; 45(3); 581-3962
27812,2206.0,,,27813.0,http://www.aapspharmscitech.org/view.asp?art=pt070126,190.0,barbital,CCC1(C(=O)NC(=O)NC1=O)CC,Sepassi K; Yalkowsky SH; AAPS PharmSciTech; 7(1); E1-E8 (2006)
18793,12831.0,,,18794.0,http://www.srcinc.com/what-we-do/product.aspx?id=133,-3.0,"benzoyl chloride, 4-methyl-",Cc1ccc(cc1)C(=O)Cl,PHYSPROP
9787,4644784.0,,,9788.0,http://dx.doi.org/10.1021/ci0500132,198.0,2-[(2E)-3-phenylprop-2-enoyl]hydrazinecarboxamide,O=C(N)NN=C(O)C=Cc1ccccc1,Karthikeyan M.; Glen R.C.; Bender A. General melting point prediction based on a diverse compound dataset and artificial neural networks. J. Chem. Inf. Model.; 2005; 45(3); 581-1370
8036,28977.0,,,8037.0,http://www.alfa.com/en/GP100W.pgm?DSSTK=B21362,-7.0,N-dodecylbenzene,CCCCCCCCCCCCc1ccccc1,Alfa Aesar
25816,4885486.0,,,25817.0,http://www.srcinc.com/what-we-do/product.aspx?id=133,181.5,plicamycin,C[C@@H](O)[C@H](O)C(=O)[C@@H](OC)[C@@H]6Cc7cc8cc(OC2CC(OC1CC(O)C(O)C(C)O1)C(O)C(C)O2)c(C)c(O)c8c(O)c7C(=O)[C@H]6OC5CC(OC4CC(OC3CC(C)(O)C(O)C(C)O3)C(O)C(C)O4)C(O)C(C)O5,PHYSPROP
15597,6695.0,,,15598.0,http://msds.chem.ox.ac.uk/,282.5,"Benzene-1,2,4,5-tetracarboxylic acid",OC(=O)c1cc(c(cc1C(=O)O)C(=O)O)C(=O)O,academic website
28137,3322.0,,,28138.0,http://www.elephantcare.org/Drugs/furosemi.htm,204.0,furosemide,O=S(=O)(N)c1c(Cl)cc(c(C(=O)O)c1)NCc2occc2,ElephantCare
25381,1265914.0,,,25382.0,http://www.srcinc.com/what-we-do/product.aspx?id=133,183.0,sulindac,CS(=O)c1ccc(cc1)/C=C3/c2ccc(F)cc2C(CC(=O)O)=C3C,PHYSPROP
15632,13838404.0,,,15633.0,http://msds.chem.ox.ac.uk/,9.0,Bromoform,BrC(Br)Br,academic website
26260,10468436.0,,,26261.0,http://www.srcinc.com/what-we-do/product.aspx?id=133,166.5,aldosterone,OCC(=O)[C@H]4CCC2C5CCC1=CC(=O)CCC1(C)[C@H]5C3CC24C(O)O3,PHYSPROP
16022,880.0,,,16023.0,http://msds.chem.ox.ac.uk/,115.0,N-Phenylacetamide,O=C(C)Nc1ccccc1,academic website
20326,7961.0,,,20327.0,http://www.srcinc.com/what-we-do/product.aspx?id=133,19.0,"2,2,2-trichloroethanol",ClC(Cl)(Cl)CO,PHYSPROP
28504,84989.0,,,28505.0,http://www.merckmillipore.com/chemicals/MDA_CHEM-802304/p_uuid,176.0,quinine,COC1=CC2=C(C=CN=C2C=C1)[C@H]([C@@H]3C[C@@H]4CCN3C[C@@H]4C=C)O,Merck Millipore
18965,12055.0,,,18966.0,http://www.srcinc.com/what-we-do/product.aspx?id=133,251.5,isovanillic acid,Oc1cc(ccc1OC)C(=O)O,PHYSPROP
9021,23873919.0,,,9022.0,http://dx.doi.org/10.1021/ci0500132,227.0,3-phenyl-2-(3-phenyl-2H-indol-2-yl)-2H-indole,N1=C2C=CC=CC2=C(c2ccccc2)C1=C1N=C2C=CC=CC2=C1c1ccccc1,Karthikeyan M.; Glen R.C.; Bender A. General melting point prediction based on a diverse compound dataset and artificial neural networks. J. Chem. Inf. Model.; 2005; 45(3); 581-597
23443,62626.0,,,23444.0,http://www.srcinc.com/what-we-do/product.aspx?id=133,34.0,3-tetradecanone,CCC(=O)CCCCCCCCCCC,PHYSPROP
13437,4512642.0,,,13438.0,http://www.amazon.com/dp/B002IYRJWI,-94.0,trans-4-octene,CCCC=CCCC,American Petroleum Institute. Research Project 44; Selected Values of Properties of Hydrocarbons and Related Compounds. Texas A & M University; College Station; TX; 1973.
27828,236.0,,,27829.0,http://www.epa.gov/oms/regs/toxics/airtox1b.pdf,5.5,benzene,c1ccccc1,EPA
22504,173.0,x,Vast majority of literature values support 79-82 - EC,22505.0,http://www.srcinc.com/what-we-do/product.aspx?id=133,-3.8,methylformamide,CC(N)=O,PHYSPROP
4362,61003.0,,,4363.0,http://www.alfa.com/en/GP100W.pgm?DSSTK=A10508,19.0,4-(trifluoromethyl)benzyl alcohol,c1cc(ccc1CO)C(F)(F)F,Alfa Aesar
25366,758458.0,,,25367.0,http://www.srcinc.com/what-we-do/product.aspx?id=133,85.0,methyl (4-chlorophenyl)sulfonyl acetate,O=S(=O)(CC(=O)OC)c1ccc(Cl)cc1,PHYSPROP
23015,59892.0,,,23016.0,http://www.srcinc.com/what-we-do/product.aspx?id=133,83.0,"naphthalene, 1,4-dibromo-",Brc1ccc(Br)c2ccccc12,PHYSPROP
17709,22672.0,,,17710.0,http://www.srcinc.com/what-we-do/product.aspx?id=133,52.0,"1,8-octanediamine",NCCCCCCCCN,PHYSPROP
16376,3741.0,,,16377.0,http://www.drugbank.ca/drugs/DB00555,217.0,Lamotrigine,Clc1cccc(c1Cl)c2nnc(N)nc2N,DrugBank
17915,19108.0,,,17916.0,http://www.srcinc.com/what-we-do/product.aspx?id=133,0.3,1-iodododecane,CCCCCCCCCCCCI,PHYSPROP
28256,11585.0,,,28257.0,http://dx.doi.org/10.1016/j.chemosphere.2013.10.095,114.0,Methyl 4-aminobenzoate,COC(=O)C1=CC=C(C=C1)N,Abraham M.H. and Acree Jr. W.E. The solubility of liquid and solid compounds in dry octan-1-ol. Chemosphere (2013)
5894,14497571.0,,,5895.0,http://www.alfa.com/en/GP100W.pgm?DSSTK=H26657,31.0,5-fluoro-2-(trifluoromethyl)aniline,c1cc(c(cc1F)N)C(F)(F)F,Alfa Aesar
6678,176504.0,,,6679.0,http://www.alfa.com/en/GP100W.pgm?DSSTK=H27871,186.0,coumarin-3-carbonitrile,c1ccc2c(c1)cc(c(=O)o2)C#N,Alfa Aesar
26687,15148687.0,,,26688.0,http://www.srcinc.com/what-we-do/product.aspx?id=133,178.0,ethylidene dicoumarol,OC=1c4ccccc4OC(=O)C=1C(C)C2=C(O)c3ccccc3OC2=O,PHYSPROP
23482,62752.0,,,23483.0,http://www.srcinc.com/what-we-do/product.aspx?id=133,174.0,"benzoic acid, 2,3,5,6-tetrafluoro-4-methyl-",Cc1c(F)c(F)c(C(=O)O)c(F)c1F,PHYSPROP
27817,10400.0,,,27818.0,http://pubs.acs.org/doi/pdf/10.1021/jo00895a013,51.0,benzalaniline,c1ccc(cc1)/C=N/c2ccccc2,Kuder JE; Gibson HW; Wychick D Journal of Organic Chemistry; 40(7); 875-879 (1975)
1779,9413.0,,,1780.0,http://www.alfa.com/en/GP100W.pgm?DSSTK=A14558,158.0,"2,6-difluorobenzoic acid",c1cc(c(c(c1)F)C(=O)O)F,Alfa Aesar
5029,16660.0,,,5030.0,http://www.alfa.com/en/GP100W.pgm?DSSTK=L10173,120.0,4-cyanophenyl isothiocyanate,c1cc(ccc1C#N)N=C=S,Alfa Aesar
4188,86062.0,,,4189.0,http://www.alfa.com/en/GP100W.pgm?DSSTK=L16181,117.0,3-phenylphthalide,c1ccc(cc1)C2c3ccccc3C(=O)O2,Alfa Aesar
2258,3300.0,,,2259.0,http://www.alfa.com/en/GP100W.pgm?DSSTK=A14417,164.0,2-carboxyphenyl phosphate,c1ccc(c(c1)C(=O)O)OP(=O)(O)O,Alfa Aesar
22614,35973.0,,,22615.0,http://www.srcinc.com/what-we-do/product.aspx?id=133,68.0,nitrofluorfen,Clc2cc(ccc2Oc1ccc(cc1)[N+]([O-])=O)C(F)(F)F,PHYSPROP
27267,10043582.0,,,27268.0,http://scripts.iucr.org/cgi-bin/paper?cv6155,150.5,"(1R,2R,3S,4S)-Bicyclo[2.2.1]hept-5-ene-2,3-dicarboxylic acid",O=C(O)[C@@H]2[C@H]1C=C[C@H](C1)[C@@H]2C(=O)O,IUCr
12238,1129108.0,,,12239.0,http://dx.doi.org/10.1021/ci0500132,121.0,"(5Z)-5-benzylidene-3-(morpholin-4-ylmethyl)-2-thioxo-1,3-thiazolidin-4-one",S=C1SC(=Cc2ccccc2)C(=O)N1CN1CCOCC1,Karthikeyan M.; Glen R.C.; Bender A. General melting point prediction based on a diverse compound dataset and artificial neural networks. J. Chem. Inf. Model.; 2005; 45(3); 581-3821
15725,6106.0,,,15726.0,http://msds.chem.ox.ac.uk/,5.0,Diiodomethane,ICI,academic website
13102,682.0,,,13103.0,http://www.amazon.com/dp/B002IYRJWI,-114.0,ethanol,CCO,American Petroleum Institute. Research Project 44; Selected Values of Properties of Hydrocarbons and Related Compounds. Texas A & M University; College Station; TX; 1973.
10957,2033858.0,,,10958.0,http://dx.doi.org/10.1021/ci0500132,126.0,"3,4,11,11a-tetrahydro-2H-pyrido[1,2-b]isoquinoline-2,6(1H)-dione",O=C1CCN2C(=O)c3ccccc3CC2C1,Karthikeyan M.; Glen R.C.; Bender A. General melting point prediction based on a diverse compound dataset and artificial neural networks. J. Chem. Inf. Model.; 2005; 45(3); 581-2540
20910,6831.0,,,20911.0,http://www.srcinc.com/what-we-do/product.aspx?id=133,35.0,"benzenemethanamine, n-ethyl-n-phenyl-",CCN(Cc1ccccc1)c2ccccc2,PHYSPROP
11806,2030383.0,,,11807.0,http://dx.doi.org/10.1021/ci0500132,179.0,1-acetyl-6-nitro-2-phenyl-1H-indol-3-ol,O=[N+]([O-])c1ccc2c([nH0](c(c3ccccc3)c2O)C(=O)C)c1,Karthikeyan M.; Glen R.C.; Bender A. General melting point prediction based on a diverse compound dataset and artificial neural networks. J. Chem. Inf. Model.; 2005; 45(3); 581-3389
10800,2034159.0,,,10801.0,http://dx.doi.org/10.1021/ci0500132,92.0,(3-methylnaphthalen-2-yl)methyl trifluoroacetate,FC(F)(F)C(=O)OCc1cc2ccccc2cc1C,Karthikeyan M.; Glen R.C.; Bender A. General melting point prediction based on a diverse compound dataset and artificial neural networks. J. Chem. Inf. Model.; 2005; 45(3); 581-2383
9428,4832222.0,,,9429.0,http://dx.doi.org/10.1021/ci0500132,142.0,"(2E,2'E)-1,1'-benzene-1,3-diylbis(3-phenylprop-2-en-1-one)",O=C(C=Cc1ccccc1)c1cccc(c1)C(=O)C=Cc1ccccc1,Karthikeyan M.; Glen R.C.; Bender A. General melting point prediction based on a diverse compound dataset and artificial neural networks. J. Chem. Inf. Model.; 2005; 45(3); 581-1011
2415,1544722.0,,,2416.0,http://www.alfa.com/en/GP100W.pgm?DSSTK=H32383,91.0,2-chloro-6-fluorobenzothiazole,c1cc2c(cc1F)sc(n2)Cl,Alfa Aesar
18212,16080.0,,,18213.0,http://www.srcinc.com/what-we-do/product.aspx?id=133,29.0,2-phenyleicosane,CC(CCCCCCCCCCCCCCCCCC)c1ccccc1,PHYSPROP
20647,7308.0,,,20648.0,http://www.srcinc.com/what-we-do/product.aspx?id=133,18.0,"n,n'-di-s-butyl-p-phenylenediamine",CC(CC)Nc1ccc(NC(C)CC)cc1,PHYSPROP
25749,4519935.0,,,25750.0,http://www.srcinc.com/what-we-do/product.aspx?id=133,73.0,"benzene, 1-nitro-2-(2-phenylethenyl)-, (e)-",O=[N+]([O-])c2ccccc2/C=C/c1ccccc1,PHYSPROP
11838,2030290.0,,,11839.0,http://dx.doi.org/10.1021/ci0500132,167.0,"(4,6-dinitrobenzene-1,3-diyl)bis(2Z)-4-ethoxy-4-oxobut-2-ene-3,2-diyl dibenzoate",O=[N+]([O-])c1cc([N+](=O)[O-])c(cc1C(C(=O)OCC)=C(OC(=O)c1ccccc1)C)C(C(=O)OCC)=C(OC(=O)c1ccccc1)C,Karthikeyan M.; Glen R.C.; Bender A. General melting point prediction based on a diverse compound dataset and artificial neural networks. J. Chem. Inf. Model.; 2005; 45(3); 581-3421
20432,7769.0,,,20433.0,http://www.srcinc.com/what-we-do/product.aspx?id=133,-55.0,n-pentylamine,CCCCCN,PHYSPROP
4880,59998.0,,,4881.0,http://www.alfa.com/en/GP100W.pgm?DSSTK=B24610,98.0,4-chloro-2-nitroanisole,COc1ccc(cc1[N+](=O)[O-])Cl,Alfa Aesar
23151,61084.0,,,23152.0,http://www.srcinc.com/what-we-do/product.aspx?id=133,35.0,"2,4,6-trifluoroaniline",Fc1cc(F)c(N)c(F)c1,PHYSPROP
3746,2043931.0,,,3747.0,http://www.alfa.com/en/GP100W.pgm?DSSTK=H28313,218.0,3-carboxy-4-fluorobenzeneboronic acid,B(c1ccc(c(c1)C(=O)O)F)(O)O,Alfa Aesar
3291,14956.0,,,3292.0,http://www.alfa.com/en/GP100W.pgm?DSSTK=A13236,38.0,"3,4-dichlorobenzyl alcohol",c1cc(c(cc1CO)Cl)Cl,Alfa Aesar
20329,7956.0,,,20330.0,http://www.srcinc.com/what-we-do/product.aspx?id=133,-141.5,dimethyl ether,COC,PHYSPROP
7502,71104.0,,,7503.0,http://www.alfa.com/en/GP100W.pgm?DSSTK=L06188,68.0,"methyl 2-nitro-3,4,5-trimethoxybenzoate",COc1cc(c(c(c1OC)OC)[N+](=O)[O-])C(=O)OC,Alfa Aesar
17330,4806.0,,,17331.0,http://dx.doi.org/10.1021/ci700307p,135.5,proxyphylline,CC(O)Cn2cnc1c2C(=O)N(C)C(=O)N1C,Hughes LD; Palmer DS; Nigsch F and Mitchell JBO. 2008 Why are some properties more difficult to predict than others? A study of QSPR models of solubility; melting point and LogP. J. Chem. Inf. Model. 2008. 48 (1). pp 220?478
26624,13873600.0,,,26625.0,http://www.srcinc.com/what-we-do/product.aspx?id=133,55.0,"benzenamine, 4-bromo-n,n-dimethyl-",CN(C)c1ccc(Br)cc1,PHYSPROP
17811,20788.0,,,17812.0,http://www.srcinc.com/what-we-do/product.aspx?id=133,-2.0,2-amino-1-butanol,CCC(N)CO,PHYSPROP
8254,6901.0,,,8255.0,http://www.alfa.com/en/GP100W.pgm?DSSTK=B22986,69.0,phenyl benzoate,c1ccc(cc1)C(=O)Oc2ccccc2,Alfa Aesar
13985,11426.0,,,13986.0,http://de.wikipedia.org/wiki/Beilsteins_Handbuch_der_Organischen_Chemie,126.0,o-hydroxymethyl_benzoic_acid,OCc1ccccc1C(=O)O,Beilstein F. K.; Beilsteins Handbuch der Organischen Chemie. Springer; Berlin; 1972.
25727,4516605.0,,,25728.0,http://www.srcinc.com/what-we-do/product.aspx?id=133,-48.3,"2-undecene, (e)-",CCCCCCCCC=CC,PHYSPROP
24589,91914.0,,,24590.0,http://www.srcinc.com/what-we-do/product.aspx?id=133,177.0,norcholanic acid,O=C(O)CC(C)C2CCC3C4CCC1CCCCC1(C)C4CCC23C,PHYSPROP
2081,1415125.0,,,2082.0,http://www.alfa.com/en/GP100W.pgm?DSSTK=A12425,77.0,2-benzyloxybenzoic acid,c1ccc(cc1)COc2ccccc2C(=O)O,Alfa Aesar
2096,2056289.0,,,2097.0,http://www.alfa.com/en/GP100W.pgm?DSSTK=B24819,31.0,"2-bromo-2',3',4',5',6'-pentafluoroacetophenone",C(C(=O)c1c(c(c(c(c1F)F)F)F)F)Br,Alfa Aesar
20021,8911.0,,,20022.0,http://www.srcinc.com/what-we-do/product.aspx?id=133,60.4,cyclododecane,C1CCCCCCCCCCC1,PHYSPROP
8668,7988.0,,,8669.0,http://www.alfa.com/en/GP100W.pgm?DSSTK=L08130,50.0,triphenyl phosphate,c1ccc(cc1)OP(=O)(Oc2ccccc2)Oc3ccccc3,Alfa Aesar
23017,59903.0,,,23018.0,http://www.srcinc.com/what-we-do/product.aspx?id=133,99.0,"9,10-anthracenedione, 2-(1,1-dimethylethyl)-",CC(C)(C)c2ccc3C(=O)c1ccccc1C(=O)c3c2,PHYSPROP
9165,10483322.0,x,salt - AL,9166.0,http://dx.doi.org/10.1021/ci0500132,180.0,"(cyclohexylamino)(3,5-di-tert-butyl-4-hydroxyphenyl)(methylsulfanyl)methylium iodide",[I-].S(C)[C+](NC1CCCCC1)c1cc(c(O)c(c1)C(C)(C)C)C(C)(C)C,Karthikeyan M.; Glen R.C.; Bender A. General melting point prediction based on a diverse compound dataset and artificial neural networks. J. Chem. Inf. Model.; 2005; 45(3); 581-748
28250,1131173.0,,,28251.0,http://en.wikipedia.org/wiki/Methimazole,146.0,methimazole,Cn1cc[nH]c1=S,Wikipedia
28268,4029.0,,,28269.0,http://www.aapspharmscitech.org/view.asp?art=pt070126,160.0,metronidazole,[O-][N+](=O)c1cnc(n1CCO)C,Sepassi K; Yalkowsky SH; AAPS PharmSciTech; 7(1); E1-E8 (2006)
28318,2280639.0,,,28319.0,http://dx.doi.org/10.1016/j.chemosphere.2013.10.095,242.0,O-Acetylacyclovir,O=C(OCCOCn1c2N\C(=N/C(=O)c2nc1)N)C,Abraham M.H. and Acree Jr. W.E. The solubility of liquid and solid compounds in dry octan-1-ol. Chemosphere (2013)
5277,11707.0,,,5278.0,http://www.alfa.com/en/GP100W.pgm?DSSTK=A15631,34.0,4-iodotoluene,Cc1ccc(cc1)I,Alfa Aesar
8683,85216.0,,,8684.0,http://www.alfa.com/en/GP100W.pgm?DSSTK=A14932,84.0,triphosgene,C(=O)(OC(Cl)(Cl)Cl)OC(Cl)(Cl)Cl,Alfa Aesar
11777,2030454.0,,,11778.0,http://dx.doi.org/10.1021/ci0500132,125.0,8-nitronaphthalene-1-carbaldehyde,O=[N+]([O-])c1cccc2cccc(C=O)c12,Karthikeyan M.; Glen R.C.; Bender A. General melting point prediction based on a diverse compound dataset and artificial neural networks. J. Chem. Inf. Model.; 2005; 45(3); 581-3360
7758,7821.0,,,7759.0,http://www.alfa.com/en/GP100W.pgm?DSSTK=A10833,-28.0,N-(2-hydroxyethyl)ethylenediamine,C(CNCCO)N,Alfa Aesar
16929,2271900.0,,,16930.0,http://www.drugbank.ca/drugs/DB02703,192.5,Fusidic Acid,O=C(O)C(CCC=C(/C)C)=C1[C@@H]2C[C@@H](O)[C@H]3[C@@]4(C)CC[C@@H](O)[C@@H](C)[C@@H]4CC[C@]3(C)[C@@]2(C)C[C@@H]1OC(C)=O,DrugBank
21134,6386.0,,,21135.0,http://www.srcinc.com/what-we-do/product.aspx?id=133,34.5,ethyl-p-methylbenzenesulfonate,O=S(=O)(OCC)c1ccc(C)cc1,PHYSPROP
2666,9326.0,,,2667.0,http://www.alfa.com/en/GP100W.pgm?DSSTK=A14979,15.0,2-fluorophenol,c1ccc(c(c1)O)F,Alfa Aesar
24378,82759.0,,,24379.0,http://www.srcinc.com/what-we-do/product.aspx?id=133,127.0,bitertanol,CC(C)(C)C(O)C(Oc1ccc(cc1)c2ccccc2)n3cncn3,PHYSPROP
23473,62727.0,,,23474.0,http://www.srcinc.com/what-we-do/product.aspx?id=133,270.0,"octanoic acid, 2-amino-, (.+-.)-",NC(CCCCCC)C(=O)O,PHYSPROP
6310,173.0,,,6311.0,http://www.alfa.com/en/GP100W.pgm?DSSTK=A12589,79.0,acetamide,CC(=O)N,Alfa Aesar
26088,10440318.0,,,26089.0,http://www.srcinc.com/what-we-do/product.aspx?id=133,137.0,"benzenesulfonamide, 3-amino-4-[(3-hydroxypropyl)",Nc1cc(ccc1S(=O)(=O)CCCO)S(N)(=O)=O,PHYSPROP
12971,7356.0,,,12972.0,http://dx.doi.org/10.1021/ci0500132,120.0,Agerite,Oc1ccc(OCc2ccccc2)cc1,Karthikeyan M.; Glen R.C.; Bender A. General melting point prediction based on a diverse compound dataset and artificial neural networks. J. Chem. Inf. Model.; 2005; 45(3); 581-4554
9998,4447690.0,,,9999.0,http://dx.doi.org/10.1021/ci0500132,121.0,"4,4'-Stilbenediamine",Nc1ccc(cc1)C=Cc1ccc(N)cc1,Karthikeyan M.; Glen R.C.; Bender A. General melting point prediction based on a diverse compound dataset and artificial neural networks. J. Chem. Inf. Model.; 2005; 45(3); 581-1581
1224,12244.0,,,1225.0,http://www.alfa.com/en/GP100W.pgm?DSSTK=A10745,94.0,"2,3,5-trimethylphenol",Cc1cc(c(c(c1)O)C)C,Alfa Aesar
8418,16736467.0,,,8419.0,http://www.alfa.com/en/GP100W.pgm?DSSTK=L11435,55.0,sorbitan monostearate,CCCCCCCCCCCCCCCCCC(=O)OC[C@H]([C@@H]1[C@@H]([C@H](CO1)O)O)O,Alfa Aesar
17091,2206.0,,,17092.0,http://dx.doi.org/10.1021/ci700307p,190.0,"5,5-diethylbarbiturate",O=C1NC(=O)NC(=O)C1(CC)CC,Hughes LD; Palmer DS; Nigsch F and Mitchell JBO. 2008 Why are some properties more difficult to predict than others? A study of QSPR models of solubility; melting point and LogP. J. Chem. Inf. Model. 2008. 48 (1). pp 220?239
1807,281700.0,,,1808.0,http://www.alfa.com/en/GP100W.pgm?DSSTK=H50894,81.0,"2,6-dimethoxyphenoxyacetic acid",COc1cccc(c1OCC(=O)O)OC,Alfa Aesar
16675,7219.0,,,16676.0,http://www.drugbank.ca/drugs/DB01722,-94.9,Ethylbenzene,CCc1ccccc1,DrugBank
8879,83912.0,,,8880.0,http://dx.doi.org/10.1021/ci020280x,233.0,phenopyrazone,O=C1NN(C(=O)C1c2ccccc2)c3ccccc3,Bergstrom C. A. S.; Norinder U.; Luthman K.; Artursson P. Molecular Descriptors Influencing Melting Point and Their Role in Classification of Solid Drugs. J. Chem. Inf. Comput. Sci.; (Article); 2003; 43(4); 1177-1326
16046,1087.0,,,16047.0,http://msds.chem.ox.ac.uk/,-73.0,Oxosulfane oxide,O=S=O,academic website