,csid,donotuse,donotusebecause,key,link,mpC,name,smiles,source
10654,2034718.0,,,10655.0,http://dx.doi.org/10.1021/ci0500132,211.0,"4-[hydroxy(4-hydroxyphenyl)methyl]-2-phenyl-5-(trifluoromethyl)-2,4-dihydro-3H-pyrazol-3-one",FC(F)(F)C1=NN(c2ccccc2)C(=O)C1C(O)c1ccc(O)cc1,Karthikeyan M.; Glen R.C.; Bender A. General melting point prediction based on a diverse compound dataset and artificial neural networks. J. Chem. Inf. Model.; 2005; 45(3); 581-2237
1800,87027.0,,,1801.0,http://www.alfa.com/en/GP100W.pgm?DSSTK=A12209,97.0,"2,6-dimethoxybenzaldehyde",COc1cccc(c1C=O)OC,Alfa Aesar
9725,4645236.0,,,9726.0,http://dx.doi.org/10.1021/ci0500132,53.0,(3E)-4-(4-methoxyphenyl)pent-3-en-2-one,O=C(C)C=C(C)c1ccc(OC)cc1,Karthikeyan M.; Glen R.C.; Bender A. General melting point prediction based on a diverse compound dataset and artificial neural networks. J. Chem. Inf. Model.; 2005; 45(3); 581-1308
22559,33788.0,x,salt,22560.0,http://www.srcinc.com/what-we-do/product.aspx?id=133,142.0,acebutolol hydrochloride,[Cl-].O=C(Nc1ccc(OCC(O)C[NH2+]C(C)C)c(c1)C(=O)C)CCC,PHYSPROP
17202,5134.0,,,17203.0,http://dx.doi.org/10.1021/ci700307p,236.5,sulfamerazine,O=S(=O)(Nc1nc(C)ccn1)c2ccc(N)cc2,Hughes LD; Palmer DS; Nigsch F and Mitchell JBO. 2008 Why are some properties more difficult to predict than others? A study of QSPR models of solubility; melting point and LogP. J. Chem. Inf. Model. 2008. 48 (1). pp 220?350
16808,4445376.0,,,16809.0,http://www.drugbank.ca/drugs/DB01436,136.0,Alfacalcidol,C=C1C(/C[C@@H](O)C[C@@H]1O)=CC=C2/CCC[C@]3(C)[C@H](CC[C@@H]23)[C@H](C)CCCC(C)C,DrugBank
25772,4525194.0,,,25773.0,http://www.srcinc.com/what-we-do/product.aspx?id=133,48.5,pyrrobutamine,Clc3ccc(CC(=CCN1CCCC1)c2ccccc2)cc3,PHYSPROP
22682,38424.0,,,22683.0,http://www.srcinc.com/what-we-do/product.aspx?id=133,164.0,"dibenzofuran, 2,4,6,7-tetrachloro-",Clc3cc2c(oc1c2ccc(Cl)c1Cl)c(Cl)c3,PHYSPROP
22555,33617.0,,,22556.0,http://www.srcinc.com/what-we-do/product.aspx?id=133,123.5,terbumeton,COc1nc(NCC)nc(NC(C)(C)C)n1,PHYSPROP
2319,3502035.0,,,2320.0,http://www.alfa.com/en/GP100W.pgm?DSSTK=A18998,100.0,"2-chloro-4,6-dibromoaniline",c1c(cc(c(c1Cl)N)Br)Br,Alfa Aesar
15591,8876.0,,,15592.0,http://msds.chem.ox.ac.uk/,99.5,Azulene,c1cccc2cccc2c1,academic website
17087,5770.0,,,17088.0,http://dx.doi.org/10.1021/ci700307p,143.5,17alpha-ethynylestradiol,Oc3cc4CC[C@@H]2[C@H](CC[C@@]1(C)[C@H]2CC[C@@]1(O)C#C)c4cc3,Hughes LD; Palmer DS; Nigsch F and Mitchell JBO. 2008 Why are some properties more difficult to predict than others? A study of QSPR models of solubility; melting point and LogP. J. Chem. Inf. Model. 2008. 48 (1). pp 220?235
11716,2030607.0,,,11717.0,http://dx.doi.org/10.1021/ci0500132,135.0,5-bromo-8-nitronaphthalene-1-carbaldehyde,Brc1ccc([N+](=O)[O-])c2c(cccc12)C=O,Karthikeyan M.; Glen R.C.; Bender A. General melting point prediction based on a diverse compound dataset and artificial neural networks. J. Chem. Inf. Model.; 2005; 45(3); 581-3299
12825,61717.0,,,12826.0,http://dx.doi.org/10.1021/ci0500132,101.0,Opianyl,O=C1OCc2ccc(OC)c(OC)c21,Karthikeyan M.; Glen R.C.; Bender A. General melting point prediction based on a diverse compound dataset and artificial neural networks. J. Chem. Inf. Model.; 2005; 45(3); 581-4408
6581,13838404.0,,,6582.0,http://www.alfa.com/en/GP100W.pgm?DSSTK=A11904,9.0,bromoform,C(Br)(Br)Br,Alfa Aesar
9796,4644765.0,,,9797.0,http://dx.doi.org/10.1021/ci0500132,190.0,(2E)-N'-phenylbut-2-enehydrazide,O=C(NNc1ccccc1)C=CC,Karthikeyan M.; Glen R.C.; Bender A. General melting point prediction based on a diverse compound dataset and artificial neural networks. J. Chem. Inf. Model.; 2005; 45(3); 581-1379
20380,7866.0,,,20381.0,http://www.srcinc.com/what-we-do/product.aspx?id=133,12.3,nonanoic acid,O=C(O)CCCCCCCC,PHYSPROP
4433,121805.0,,,4434.0,http://www.alfa.com/en/GP100W.pgm?DSSTK=H25857,42.0,"4,4-dimethylcyclohexanone",CC1(CCC(=O)CC1)C,Alfa Aesar
28507,60108.0,,,28508.0,http://www.globalchems.com/sources-list/94-01-9.html,116.0,resorcinol dibenzoate,O=C(Oc2cccc(OC(=O)c1ccccc1)c2)c3ccccc3,GlobalChems
9476,4766874.0,,,9477.0,http://dx.doi.org/10.1021/ci0500132,145.0,"1,5-bis[(Z)-2-chloro-2-phenylethenyl]-2,4-dinitrobenzene",ClC(=Cc1cc(C=C(Cl)c2ccccc2)c([N+](=O)[O-])cc1[N+](=O)[O-])c1ccccc1,Karthikeyan M.; Glen R.C.; Bender A. General melting point prediction based on a diverse compound dataset and artificial neural networks. J. Chem. Inf. Model.; 2005; 45(3); 581-1059
13108,21106466.0,,,13109.0,http://www.amazon.com/dp/B003XEQTLE,-17.0,propargyl_alcohol,C#CCO,Aldrich Chemical Company; Aldrich Catalog-Handbook of Fine Chemicals; Milwaukee; WI; 1984.
5847,644229.0,,,5848.0,http://www.alfa.com/en/GP100W.pgm?DSSTK=L11769,58.0,5-chloro-2-methoxyphenyl isothiocyanate,COc1ccc(cc1N=C=S)Cl,Alfa Aesar
19704,10192.0,,,19705.0,http://www.srcinc.com/what-we-do/product.aspx?id=133,330.5,"1,4-phthalazinedione, 5-amino-2,3-dihydro-",Oc2nnc(O)c1cccc(N)c12,PHYSPROP
8696,92214.0,,,8697.0,http://www.alfa.com/en/GP100W.pgm?DSSTK=L02748,117.0,tris(pentafluorophenyl)phosphine,c1(c(c(c(c(c1F)F)P(c2c(c(c(c(c2F)F)F)F)F)c3c(c(c(c(c3F)F)F)F)F)F)F)F,Alfa Aesar
993,1415117.0,,,994.0,http://www.alfa.com/en/GP100W.pgm?DSSTK=L07090,147.0,2-(allylthio)nicotinic acid,C=CCSc1c(cccn1)C(=O)O,Alfa Aesar
26327,10469285.0,,,26328.0,http://www.srcinc.com/what-we-do/product.aspx?id=133,176.0,halosulfuron-methyl,O=S(=O)(NC(=O)Nc1nc(OC)cc(OC)n1)C2C(C(=O)OC)=C(Cl)NN2C,PHYSPROP
15626,2299463.0,,,15627.0,http://msds.chem.ox.ac.uk/,50.0,Bis[(~2~H_5_)phenyl]methanone,[2H]c1c(c([2H])c([2H])c([2H])c1[2H])C(=O)c2c([2H])c([2H])c([2H])c([2H])c2[2H],academic website
4239,608910.0,,,4240.0,http://www.alfa.com/en/GP100W.pgm?DSSTK=L17676,83.0,4-(2-pyridyl)-2-methyl-3-butyn-2-ol,CC(C)(C#Cc1ccccn1)O,Alfa Aesar
13081,1906.0,,,13082.0,http://dx.doi.org/10.1021/ci0500132,169.0,paracetamol,O=C(Nc1ccc(O)cc1)C,Karthikeyan M.; Glen R.C.; Bender A. General melting point prediction based on a diverse compound dataset and artificial neural networks. J. Chem. Inf. Model.; 2005; 45(3); 581-4664
4197,96573.0,,,4198.0,http://www.alfa.com/en/GP100W.pgm?DSSTK=L04264,60.0,3-piperidinemethanol,C1CC(CNC1)CO,Alfa Aesar
21056,6560.0,,,21057.0,http://www.srcinc.com/what-we-do/product.aspx?id=133,-35.0,butylglycolyl butyl phthalate,O=C(OCCCC)COC(=O)c1ccccc1C(=O)OCCCC,PHYSPROP
23076,60282.0,,,23077.0,http://www.srcinc.com/what-we-do/product.aspx?id=133,-45.0,nonanedioic acid bis-(2-ethyl-butyl) ester,CCC(CC)COC(=O)CCCCCCCC(=O)OCC(CC)CC,PHYSPROP
8722,411714.0,,,8723.0,http://www.alfa.com/en/GP100W.pgm?DSSTK=L00868,211.0,vanillic acid hydrazide,COc1cc(ccc1O)C(=O)NN,Alfa Aesar
21322,6086.0,,,21323.0,http://www.srcinc.com/what-we-do/product.aspx?id=133,-80.7,acetylene,C#C,PHYSPROP
13885,13857694.0,,,13886.0,http://www.questia.com/library/book/physical_properties_of_chemical_compounds_by_robert_rickert_dreisbach.jsp,-25.0,m-dichlorobenzene,Clc1cccc(Cl)c1,Dreisbach R. R. Physical Properties of Chemical Compounds; Vol. I; American Chemical Society; Washington; 1955.
515,542289.0,,,516.0,http://www.alfa.com/en/GP100W.pgm?DSSTK=H30395,177.0,"1,4-bis(phenylethynyl)benzene",c1ccc(cc1)C#Cc2ccc(cc2)C#Cc3ccccc3,Alfa Aesar
22199,4494.0,,,22200.0,http://www.srcinc.com/what-we-do/product.aspx?id=133,241.0,isodrin,Oc1ccc(cc1)CC(NC)C,PHYSPROP
5205,21106900.0,,,5206.0,http://www.alfa.com/en/GP100W.pgm?DSSTK=A10439,114.0,4'-hydroxy-3'-methoxyacetophenone,CC(=O)c1ccc(c(c1)OC)O,Alfa Aesar
24878,191888.0,,,24879.0,http://www.srcinc.com/what-we-do/product.aspx?id=133,167.0,amicetin,CC(N)(CO)C(=O)Nc1ccc(cc1)C(=O)NC=2C=CN(C(=O)N=2)C4CCC(OC3OC(C)C(C(O)C3O)N(C)C)C(C)O4,PHYSPROP
10572,2034925.0,,,10573.0,http://dx.doi.org/10.1021/ci0500132,180.0,"5-(2-chlorophenyl)-3-(thiophen-2-ylcarbonyl)-3aH-pyrrolo[3,4-d]isoxazole-4,6(5H,6aH)-dione",Clc1ccccc1N1C(=O)C2ON=C(C(=O)c3sccc3)C2C1=O,Karthikeyan M.; Glen R.C.; Bender A. General melting point prediction based on a diverse compound dataset and artificial neural networks. J. Chem. Inf. Model.; 2005; 45(3); 581-2155
19468,10917.0,,,19469.0,http://www.srcinc.com/what-we-do/product.aspx?id=133,208.0,"2,2'-bis(azonaphthalene)",c3cccc4ccc(/N=N/c1cc2ccccc2cc1)cc34,PHYSPROP
15748,8043.0,,,15749.0,http://msds.chem.ox.ac.uk/,-52.0,Dioctyl phthalate,O=C(OCCCCCCCC)c1ccccc1C(=O)OCCCCCCCC,academic website
12531,276682.0,,,12532.0,http://dx.doi.org/10.1021/ci0500132,140.0,"3-(acetylamino)-2,5-di(acetyloxy)-6-[(acetyloxy)methyl]tetrahydro-2H-pyran-4-yl acetate",O=C(OCC1OC(OC(=O)C)C(NC(=O)C)C(OC(=O)C)C1OC(=O)C)C,Karthikeyan M.; Glen R.C.; Bender A. General melting point prediction based on a diverse compound dataset and artificial neural networks. J. Chem. Inf. Model.; 2005; 45(3); 581-4114
1199,2053997.0,,,1200.0,http://www.alfa.com/en/GP100W.pgm?DSSTK=L19838,77.0,"2,3,4-trimethoxybenzeneboronic acid",B(c1ccc(c(c1OC)OC)OC)(O)O,Alfa Aesar
2109,280103.0,,,2110.0,http://www.alfa.com/en/GP100W.pgm?DSSTK=H32246,54.0,2-bromo-3-fluoroisovaleric acid,CC(C)(C(C(=O)O)Br)F,Alfa Aesar
3009,287293.0,,,3010.0,http://www.alfa.com/en/GP100W.pgm?DSSTK=H53411,50.0,2-pentynoic acid,CCC#CC(=O)O,Alfa Aesar
12892,17470.0,,,12893.0,http://dx.doi.org/10.1021/ci0500132,188.0,N-(Cyclohexylcarbamoyl)-4-(1-hydroxyethyl)benzenesulfonamide,[S+2]([O-])([O-])(NC(=O)NC1CCCCC1)c1ccc(cc1)C(=O)C,Karthikeyan M.; Glen R.C.; Bender A. General melting point prediction based on a diverse compound dataset and artificial neural networks. J. Chem. Inf. Model.; 2005; 45(3); 581-4475
26799,21106365.0,,,26800.0,http://www.srcinc.com/what-we-do/product.aspx?id=133,187.5,phenothiazine,c1ccc2Sc3ccccc3Nc2c1,PHYSPROP
4967,121941.0,,,4968.0,http://www.alfa.com/en/GP100W.pgm?DSSTK=A12364,130.0,4-chlorobenzoylacetonitrile,c1cc(ccc1C(=O)CC#N)Cl,Alfa Aesar
11220,2032645.0,,,11221.0,http://dx.doi.org/10.1021/ci0500132,158.0,"4-(2-methoxyphenyl)-2,4-dimethyl-5,6-dihydro-4H-benzo[d]cyclohepta[1,2-b:3,4-b']difuran",o1c2CCC(C)(c3cc(oc3c2c2ccccc12)C)c1ccccc1OC,Karthikeyan M.; Glen R.C.; Bender A. General melting point prediction based on a diverse compound dataset and artificial neural networks. J. Chem. Inf. Model.; 2005; 45(3); 581-2803
20429,7775.0,,,20430.0,http://www.srcinc.com/what-we-do/product.aspx?id=133,50.0,"2-butyne-1,4-diol",OCC#CCO,PHYSPROP
2124,149132.0,,,2125.0,http://www.alfa.com/en/GP100W.pgm?DSSTK=B21272,44.0,"2-bromo-4,6-dimethylaniline",Cc1cc(c(c(c1)Br)N)C,Alfa Aesar
23484,62757.0,,,23485.0,http://www.srcinc.com/what-we-do/product.aspx?id=133,109.0,pentafluorophenylacetic acid,Fc1c(CC(=O)O)c(F)c(F)c(F)c1F,PHYSPROP
14350,13875201.0,,,14351.0,http://www.amazon.com/dp/B003XEQTLE,-10.0,2-bromo-m-xylene,Cc1cccc(C)c1Br,Aldrich Chemical Company; Aldrich Catalog-Handbook of Fine Chemicals; Milwaukee; WI; 1984.
27350,553346.0,,,27351.0,http://tinyurl.com/6lwyvqd,55.0,"(2E)-1,3-Diphenyl-2-propen-1-one",C1(=CC=CC=C1)C(\C=C\C2=CC=CC=C2)=O,Electrochimica Acta
7443,454183.0,,,7444.0,http://www.alfa.com/en/GP100W.pgm?DSSTK=B20534,79.0,mesitylacetonitrile,Cc1cc(c(c(c1)C)CC#N)C,Alfa Aesar
22364,826.0,,,22365.0,http://www.srcinc.com/what-we-do/product.aspx?id=133,264.0,2-piperidinecarboxylic acid,O=C(O)C1CCCCN1,PHYSPROP
10010,4357665.0,,,10011.0,http://dx.doi.org/10.1021/ci0500132,250.0,"14-hydroxy-7,20-epoxykaur-16-ene-1,11,15,20-tetrone",O=C1CC2C(=C)C(=O)C3(C1C14C(=O)OC3CC4C(C)(C)CCC1=O)C2O,Karthikeyan M.; Glen R.C.; Bender A. General melting point prediction based on a diverse compound dataset and artificial neural networks. J. Chem. Inf. Model.; 2005; 45(3); 581-1593
20668,7273.0,,,20669.0,http://www.srcinc.com/what-we-do/product.aspx?id=133,-100.0,"hexanal, 3-ethoxy-, diethyl acetal",CCOC(CC(CCC)OCC)OCC,PHYSPROP
1140,13835293.0,,,1141.0,http://www.alfa.com/en/GP100W.pgm?DSSTK=A10340,128.0,"2,2-dimethyl-1,3-propanediol",CC(C)(CO)CO,Alfa Aesar
4398,2849.0,,,4399.0,http://www.alfa.com/en/GP100W.pgm?DSSTK=A18976,177.0,"4,4'-diaminodiphenyl sulfone",c1cc(ccc1N)S(=O)(=O)c2ccc(cc2)N,Alfa Aesar
5760,5370903.0,,,5761.0,http://www.alfa.com/en/GP100W.pgm?DSSTK=L17453,101.0,5-bromo-2-iodopyrimidine,c1c(cnc(n1)I)Br,Alfa Aesar
16347,15266.0,,,16348.0,http://www.drugbank.ca/drugs/DB00470,200.0,Dronabinol,CCCCCc2cc1OC(C)(C)[C@@H]3CCC(C)=C[C@H]3c1c(O)c2,DrugBank
11796,2030427.0,,,11797.0,http://dx.doi.org/10.1021/ci0500132,211.0,"6,8-dibromo-4-phenylquinolin-2(1H)-one",Brc1cc(Br)c2[nH0]c(O)cc(c3ccccc3)c2c1,Karthikeyan M.; Glen R.C.; Bender A. General melting point prediction based on a diverse compound dataset and artificial neural networks. J. Chem. Inf. Model.; 2005; 45(3); 581-3379
4791,63906.0,,,4792.0,http://www.alfa.com/en/GP100W.pgm?DSSTK=A14237,57.0,4-bromobenzaldehyde,c1cc(ccc1C=O)Br,Alfa Aesar
6206,2056707.0,,,6207.0,http://www.alfa.com/en/GP100W.pgm?DSSTK=H27314,76.0,"7-bromoacetyl-3,4-dihydro-1,5-benzodioxepin",c1cc2c(cc1C(=O)CBr)OCCCO2,Alfa Aesar
22575,34423.0,,,22576.0,http://www.srcinc.com/what-we-do/product.aspx?id=133,17.0,"4-piperidinamine, 2,2,6,6-tetramethyl-",NC1CC(C)(C)NC(C)(C)C1,PHYSPROP
17113,2388.0,,,17114.0,http://dx.doi.org/10.1021/ci700307p,58.0,butamben,Nc1ccc(cc1)C(=O)OCCCC,Hughes LD; Palmer DS; Nigsch F and Mitchell JBO. 2008 Why are some properties more difficult to predict than others? A study of QSPR models of solubility; melting point and LogP. J. Chem. Inf. Model. 2008. 48 (1). pp 220?261
9584,4645658.0,,,9585.0,http://dx.doi.org/10.1021/ci0500132,219.0,4-[(2Z)-2-(1-cyano-2-ethoxy-2-oxoethylidene)hydrazino]benzoic acid,O=C(O)c1ccc(NN=C(C#N)C(=O)OCC)cc1,Karthikeyan M.; Glen R.C.; Bender A. General melting point prediction based on a diverse compound dataset and artificial neural networks. J. Chem. Inf. Model.; 2005; 45(3); 581-1167
1611,11179869.0,,,1612.0,http://www.alfa.com/en/GP100W.pgm?DSSTK=H27849,154.0,"2,5-dichloropyridine-3-boronic acid",B(c1cc(cnc1Cl)Cl)(O)O,Alfa Aesar
21144,6369.0,,,21145.0,http://www.srcinc.com/what-we-do/product.aspx?id=133,94.0,sulphenone,O=S(=O)(c1ccc(Cl)cc1)c2ccccc2,PHYSPROP
2039,65745.0,,,2040.0,http://www.alfa.com/en/GP100W.pgm?DSSTK=A12286,47.0,2-aminobenzonitrile,c1ccc(c(c1)C#N)N,Alfa Aesar
11240,2032615.0,,,11241.0,http://dx.doi.org/10.1021/ci0500132,93.0,2-[Bis(5-methyl-2-furyl)methyl]-4-methyl-6-nitrophenol,O=[N+]([O-])c1cc(C)cc(c1O)C(c1oc(C)cc1)c1oc(C)cc1,Karthikeyan M.; Glen R.C.; Bender A. General melting point prediction based on a diverse compound dataset and artificial neural networks. J. Chem. Inf. Model.; 2005; 45(3); 581-2823
17482,28969.0,,,17483.0,http://www.srcinc.com/what-we-do/product.aspx?id=133,-30.0,phenyl acetate,O=C(C)Oc1ccccc1,PHYSPROP
2164,4647139.0,,,2165.0,http://www.alfa.com/en/GP100W.pgm?DSSTK=B21784,190.0,2-bromo-5-fluorocinnamic acid,c1cc(c(cc1F)/C=C/C(=O)O)Br,Alfa Aesar
22166,2155.0,,,22167.0,http://www.srcinc.com/what-we-do/product.aspx?id=133,246.5,aspartame,O=C(O)CC(N)C(=O)NC(Cc1ccccc1)C(=O)OC,PHYSPROP
7181,7065.0,,,7182.0,http://www.alfa.com/en/GP100W.pgm?DSSTK=A12966,-88.0,ethyl isobutyrate,CCOC(=O)C(C)C,Alfa Aesar
12267,733227.0,,,12268.0,http://dx.doi.org/10.1021/ci0500132,102.0,"3-methoxybicyclo[4.2.0]octa-1,3,5-triene-7,8-dione",O=C1c2ccc(OC)cc2C1=O,Karthikeyan M.; Glen R.C.; Bender A. General melting point prediction based on a diverse compound dataset and artificial neural networks. J. Chem. Inf. Model.; 2005; 45(3); 581-3850
11250,2032602.0,,,11251.0,http://dx.doi.org/10.1021/ci0500132,79.0,"2-[bis(5-methylfuran-2-yl)methyl]-4,5-dimethoxyaniline",o1c(C)ccc1C(c1cc(OC)c(OC)cc1N)c1oc(C)cc1,Karthikeyan M.; Glen R.C.; Bender A. General melting point prediction based on a diverse compound dataset and artificial neural networks. J. Chem. Inf. Model.; 2005; 45(3); 581-2833
19751,10022.0,,,19752.0,http://www.srcinc.com/what-we-do/product.aspx?id=133,47.5,"propane, 1-isothiocyanato-3-(methylsulfonyl)-",CS(=O)(=O)CCCN=C=S,PHYSPROP
22983,59496.0,,,22984.0,http://www.srcinc.com/what-we-do/product.aspx?id=133,-111.0,"silane, chlorodimethyl-",C[SiH](C)Cl,PHYSPROP
6821,1477946.0,,,6822.0,http://www.alfa.com/en/GP100W.pgm?DSSTK=B21096,62.0,diethyl (phthalimidomethyl)phosphonate,CCOP(=O)(CN1C(=O)c2ccccc2C1=O)OCC,Alfa Aesar
8570,1267611.0,,,8571.0,http://www.alfa.com/en/GP100W.pgm?DSSTK=B20818,167.0,trans-3-fluorocinnamic acid,c1cc(cc(c1)F)/C=C/C(=O)O,Alfa Aesar
23180,61280.0,,,23181.0,http://www.srcinc.com/what-we-do/product.aspx?id=133,27.0,2-nitro-4-fluorotoluene,Cc1ccc(F)cc1[N+](=O)[O-],PHYSPROP
22328,942.0,,,22329.0,http://www.srcinc.com/what-we-do/product.aspx?id=133,345.5,orotic acid,OC(=O)C1=CC(=O)NC(=O)N1,PHYSPROP
26909,21132380.0,,,26910.0,http://www.srcinc.com/what-we-do/product.aspx?id=133,-64.0,"2,4-dimethylpyridine",Cc1ccnc(C)c1,PHYSPROP
15244,11996.0,,,15245.0,http://msds.chem.ox.ac.uk/,-94.0,2-Ethoxy-2-methylpropane,CC(C)(C)OCC,academic website
15422,64490.0,,,15423.0,http://msds.chem.ox.ac.uk/,180.0,"4-[(2R,3S)-4-(3,4-Dihydroxyphenyl)-2,3-dimethylbutyl]benzene-1,2-diol",Oc2ccc(C[C@@H](C)[C@@H](C)Cc1ccc(O)c(O)c1)cc2O,academic website
12163,1734560.0,,,12164.0,http://dx.doi.org/10.1021/ci0500132,287.0,"1,3-dimethyl-12-oxo-12H-[1,3]benzothiazolo[3,2-b][2,7]naphthyridine-5-carbonitrile",S1c2ccccc2N2C1=C(C#N)c1cc([nH0]c(C)c1C2=O)C,Karthikeyan M.; Glen R.C.; Bender A. General melting point prediction based on a diverse compound dataset and artificial neural networks. J. Chem. Inf. Model.; 2005; 45(3); 581-3746
11308,2032073.0,,,11309.0,http://dx.doi.org/10.1021/ci0500132,115.0,"5-methyl-2-(1-methylethyl)cyclohexyl 3-oxo-2,3-diphenylpropanoate",O=C(OC1CC(C)CCC1C(C)C)C(c1ccccc1)C(=O)c1ccccc1,Karthikeyan M.; Glen R.C.; Bender A. General melting point prediction based on a diverse compound dataset and artificial neural networks. J. Chem. Inf. Model.; 2005; 45(3); 581-2891
20546,7564.0,,,20547.0,http://www.srcinc.com/what-we-do/product.aspx?id=133,-83.0,propylamine,CCCN,PHYSPROP
4485,14260163.0,,,4486.0,http://www.alfa.com/en/GP100W.pgm?DSSTK=H27254,51.0,"4,6-dibromopyrimidine",c1c(ncnc1Br)Br,Alfa Aesar
23286,61777.0,,,23287.0,http://www.srcinc.com/what-we-do/product.aspx?id=133,111.5,"1,4-benzenediol, 2-bromo-",Oc1cc(Br)c(O)cc1,PHYSPROP
18015,17868.0,,,18016.0,http://www.srcinc.com/what-we-do/product.aspx?id=133,56.0,"pyrimidine, 4-phenyl-",c1cc(ccc1)c2ccncn2,PHYSPROP
28470,5773.0,,,28471.0,http://www.aapspharmscitech.org/view.asp?art=pt070126,131.0,progesterone,O=C4\C=C2/[C@]([C@H]1CC[C@@]3([C@@H](C(=O)C)CC[C@H]3[C@@H]1CC2)C)(C)CC4,Sepassi K; Yalkowsky SH; AAPS PharmSciTech; 7(1); E1-E8 (2006)
5526,2018866.0,,,5527.0,http://www.alfa.com/en/GP100W.pgm?DSSTK=A18354,21.0,4-n-propylbenzenesulfonyl chloride,CCCc1ccc(cc1)S(=O)(=O)Cl,Alfa Aesar
10376,2036247.0,,,10377.0,http://dx.doi.org/10.1021/ci0500132,99.0,"N-[3,5-bis(trifluoromethyl)phenyl]-5-tert-butyl-6-chloropyrazine-2-carboxamide",Clc1[nH0]c(c[nH0]c1C(C)(C)C)C(=O)Nc1cc(cc(c1)C(F)(F)F)C(F)(F)F,Karthikeyan M.; Glen R.C.; Bender A. General melting point prediction based on a diverse compound dataset and artificial neural networks. J. Chem. Inf. Model.; 2005; 45(3); 581-1959
23232,61536.0,,,23233.0,http://www.srcinc.com/what-we-do/product.aspx?id=133,115.5,galipine,COc1ccc(cc1OC)CCc2cc(OC)c3ccccc3n2,PHYSPROP
16338,395095.0,,,16339.0,http://www.drugbank.ca/drugs/DB01515,195.0,Benzoylecgonine,CN1[C@H]2CC[C@@H]1[C@@H](C(=O)O)[C@H](C2)OC(=O)c3ccccc3,DrugBank
10007,4389657.0,,,10008.0,http://dx.doi.org/10.1021/ci0500132,259.0,"2,2,6,6,9a-pentamethyl-12-methylidene-13-oxodecahydro-4H-3b,11a-ethanophenanthro[1,2-d][1,3]dioxole-4,9,10(3aH)-triyl triacetate",O=C1C(=C)C23OC(OC3C11C(C(OC(=O)C)C2)C2(C)C(OC(=O)C)CCC(C)(C)C2CC1OC(=O)C)(C)C,Karthikeyan M.; Glen R.C.; Bender A. General melting point prediction based on a diverse compound dataset and artificial neural networks. J. Chem. Inf. Model.; 2005; 45(3); 581-1590
6038,5574.0,,,6039.0,http://www.alfa.com/en/GP100W.pgm?DSSTK=L01836,222.0,6-(methylthio)purine,CSc1c2c([nH]cn2)ncn1,Alfa Aesar
5413,20140.0,,,5414.0,http://www.alfa.com/en/GP100W.pgm?DSSTK=B21673,7.0,4'-methylpropiophenone,CCC(=O)c1ccc(cc1)C,Alfa Aesar
21303,6108.0,,,21304.0,http://www.srcinc.com/what-we-do/product.aspx?id=133,-111.5,carbon disulfide,S=C=S,PHYSPROP