,csid,donotuse,donotusebecause,key,link,mpC,name,smiles,source
9877,4644555.0,,,9878.0,http://dx.doi.org/10.1021/ci0500132,54.0,"diethyl (2E,2'E)-3,3'-benzene-1,3-diylbisprop-2-enoate",O=C(OCC)C=Cc1cccc(c1)C=CC(=O)OCC,Karthikeyan M.; Glen R.C.; Bender A. General melting point prediction based on a diverse compound dataset and artificial neural networks. J. Chem. Inf. Model.; 2005; 45(3); 581-1460
20405,7811.0,,,20406.0,http://www.srcinc.com/what-we-do/product.aspx?id=133,-22.9,n-hexylamine,CCCCCCN,PHYSPROP
17127,5933.0,,,17128.0,http://dx.doi.org/10.1021/ci700307p,146.0,colchicine,CC(=O)N[C@H]2CCc3cc(OC)c(OC)c(OC)c3C1=CC=C(OC)C(=O)C=C12,Hughes LD; Palmer DS; Nigsch F and Mitchell JBO. 2008 Why are some properties more difficult to predict than others? A study of QSPR models of solubility; melting point and LogP. J. Chem. Inf. Model. 2008. 48 (1). pp 220?275
5481,4575657.0,,,5482.0,http://www.alfa.com/en/GP100W.pgm?DSSTK=A10338,127.0,4-nitrocinnamyl alcohol,c1cc(ccc1/C=C/CO)[N+](=O)[O-],Alfa Aesar
10502,2035514.0,,,10503.0,http://dx.doi.org/10.1021/ci0500132,197.0,4-amino-3-(pyrrolidin-1-ylmethyl)-2H-chromen-2-one,O=C1Oc2ccccc2C(N)=C1CN1CCCC1,Karthikeyan M.; Glen R.C.; Bender A. General melting point prediction based on a diverse compound dataset and artificial neural networks. J. Chem. Inf. Model.; 2005; 45(3); 581-2085
1462,177064.0,,,1463.0,http://www.alfa.com/en/GP100W.pgm?DSSTK=A11259,54.0,"2,4-dichlorobenzenesulfonyl chloride",c1cc(c(cc1Cl)Cl)S(=O)(=O)Cl,Alfa Aesar
25806,4743055.0,,,25807.0,http://www.srcinc.com/what-we-do/product.aspx?id=133,118.0,"1,7,7-trimethyl-bicyclo[2.2.1]heptan-2-one oxime",CC2(C)C1C/C(=NO)C2(C)CC1,PHYSPROP
27934,10179239.0,,,27935.0,http://tinyurl.com/3zo3sms,-43.0,cis-decalin,C1CC[C@H]2CCCC[C@H]2C1,Sigma-Aldrich
24424,83352.0,,,24425.0,http://www.srcinc.com/what-we-do/product.aspx?id=133,72.0,methyldymron,CN(C(=O)NC(C)(C)c1ccccc1)c2ccccc2,PHYSPROP
9972,4501076.0,,,9973.0,http://dx.doi.org/10.1021/ci0500132,148.0,2-Benzothiazol-2-yl-3-thiophen-2-yl-acrylonitrile,s1cccc1C=C(C#N)c1sc2ccccc2[nH0]1,Karthikeyan M.; Glen R.C.; Bender A. General melting point prediction based on a diverse compound dataset and artificial neural networks. J. Chem. Inf. Model.; 2005; 45(3); 581-1555
11880,2029909.0,,,11881.0,http://dx.doi.org/10.1021/ci0500132,219.0,"propanamide, 3,3,3-trifluoro-N-(2,4,6-trichlorophenyl)-2-(trifluoromethyl)-",Clc1cc(Cl)c(NC(=O)C(C(F)(F)F)C(F)(F)F)c(Cl)c1,Karthikeyan M.; Glen R.C.; Bender A. General melting point prediction based on a diverse compound dataset and artificial neural networks. J. Chem. Inf. Model.; 2005; 45(3); 581-3463
2279,3052959.0,,,2280.0,http://www.alfa.com/en/GP100W.pgm?DSSTK=H26777,132.0,2-chloro-3-(trifluoromethyl)phenylacetic acid,c1cc(c(c(c1)C(F)(F)F)Cl)CC(=O)O,Alfa Aesar
6210,190176.0,,,6211.0,http://www.alfa.com/en/GP100W.pgm?DSSTK=H27157,214.0,"7-chloro-2h-1,4-benzothiazin-3(4h)-one",c1cc2c(cc1Cl)SCC(=O)N2,Alfa Aesar
15204,13835296.0,,,15205.0,http://msds.chem.ox.ac.uk/,71.0,"2,6-Di-tert-butyl-4-methylphenol",CC(C)(C)c1cc(C)cc(c1O)C(C)(C)C,academic website
14357,18105.0,,,14358.0,http://www.amazon.com/dp/B003XEQTLE,46.0,4-biphenylmethanol,OCc1ccc(cc1)c2ccccc2,Aldrich Chemical Company; Aldrich Catalog-Handbook of Fine Chemicals; Milwaukee; WI; 1984.
21368,5882.0,,,21369.0,http://www.srcinc.com/what-we-do/product.aspx?id=133,242.0,p-nitrobenzoic acid,O=[N+]([O-])c1ccc(cc1)C(=O)O,PHYSPROP
7683,6406.0,,,7684.0,http://www.alfa.com/en/GP100W.pgm?DSSTK=A13030,-48.0,methyl methacrylate,CC(=C)C(=O)OC,Alfa Aesar
17189,5773.0,,,17190.0,http://dx.doi.org/10.1021/ci700307p,126.0,progesterone,CC(=O)[C@H]2CC[C@H]3[C@@H]4CCC1=CC(=O)CC[C@]1(C)[C@H]4CC[C@]23C,Hughes LD; Palmer DS; Nigsch F and Mitchell JBO. 2008 Why are some properties more difficult to predict than others? A study of QSPR models of solubility; melting point and LogP. J. Chem. Inf. Model. 2008. 48 (1). pp 220?337
24780,123379.0,,,24781.0,http://www.srcinc.com/what-we-do/product.aspx?id=133,119.0,4-hydroxy-3-methylbenzaldehyde,Cc1cc(C=O)ccc1O,PHYSPROP
3801,3392686.0,,,3802.0,http://www.alfa.com/en/GP100W.pgm?DSSTK=B25108,117.0,3-chloro-4-hydroxy-5-methoxybenzyl alcohol,COc1cc(cc(c1O)Cl)CO,Alfa Aesar
13438,7580.0,,,13439.0,http://www.amazon.com/dp/B002IYRJWI,-93.0,"2,4,4-trimethyl-1-pentene",C=C(C)CC(C)(C)C,American Petroleum Institute. Research Project 44; Selected Values of Properties of Hydrocarbons and Related Compounds. Texas A & M University; College Station; TX; 1973.
13925,61789.0,,,13926.0,http://www.amazon.com/dp/B003XEQTLE,-5.0,m-nitrostyrene,O=[N+]([O-])c1cc(C=C)ccc1,Aldrich Chemical Company; Aldrich Catalog-Handbook of Fine Chemicals; Milwaukee; WI; 1984.
479,61086.0,,,480.0,http://www.alfa.com/en/GP100W.pgm?DSSTK=A11807,-12.0,"1,4-difluoro-2-nitrobenzene",c1cc(c(cc1F)[N+](=O)[O-])F,Alfa Aesar
6610,6593.0,,,6611.0,http://www.alfa.com/en/GP100W.pgm?DSSTK=A11448,243.0,carbazole,c1ccc2c(c1)c3ccccc3[nH]2,Alfa Aesar
23502,62925.0,,,23503.0,http://www.srcinc.com/what-we-do/product.aspx?id=133,70.0,"2,4-dimethoxy-6-hydroxy-benzaldehyd",COc1cc(cc(O)c1C=O)OC,PHYSPROP
10183,2829348.0,,,10184.0,http://dx.doi.org/10.1021/ci0500132,135.0,"1a-[(acetyloxy)methyl]-2-[(2,3,4,6-tetra-O-acetylhexopyranosyl)oxy]-1a,1b,2,5a,6,6a-hexahydrooxireno[4,5]cyclopenta[1,2-c]pyran-6-yl 4-(acetyloxy)benzoate",O=C(OCC1OC(OC2OC=CC3C(OC(=O)c4ccc(OC(=O)C)cc4)C4OC4(COC(=O)C)C32)C(OC(=O)C)C(OC(=O)C)C1OC(=O)C)C,Karthikeyan M.; Glen R.C.; Bender A. General melting point prediction based on a diverse compound dataset and artificial neural networks. J. Chem. Inf. Model.; 2005; 45(3); 581-1766
3433,451786.0,,,3434.0,http://www.alfa.com/en/GP100W.pgm?DSSTK=L10490,59.0,"3,5-dichlorophenoxyacetonitrile",c1c(cc(cc1Cl)Cl)OCC#N,Alfa Aesar
9984,4492507.0,,,9985.0,http://dx.doi.org/10.1021/ci0500132,300.0,(2E)-2-(1H-Benzimidazol-2-yl)-3-(3-hydroxyphenyl)acrylonitrile,Oc1cccc(c1)C=C(C#N)C1N=C2C=CC=CC2=N1,Karthikeyan M.; Glen R.C.; Bender A. General melting point prediction based on a diverse compound dataset and artificial neural networks. J. Chem. Inf. Model.; 2005; 45(3); 581-1567
14944,67815.0,,,14945.0,http://msds.chem.ox.ac.uk/,17.0,"1,3-Difluoro-5-nitrobenzene",Fc1cc(F)cc(c1)[N+](=O)[O-],academic website
23600,63703.0,,,23601.0,http://www.srcinc.com/what-we-do/product.aspx?id=133,103.0,2-quinolineethanol,OCCc1ccc2ccccc2n1,PHYSPROP
3726,21865.0,,,3727.0,http://www.alfa.com/en/GP100W.pgm?DSSTK=A13317,39.0,3-bromobenzonitrile,c1cc(cc(c1)Br)C#N,Alfa Aesar
23044,60092.0,,,23045.0,http://www.srcinc.com/what-we-do/product.aspx?id=133,52.0,"benzaldehyde, 2,5-dimethoxy-",COc1ccc(cc1C=O)OC,PHYSPROP
10842,2034090.0,,,10843.0,http://dx.doi.org/10.1021/ci0500132,86.0,"3-methoxy-4-(1-methylethyl)bicyclo[4.2.0]octa-1,3,5-triene-7-carboxylic acid",O=C(O)C1Cc2cc(OC)c(cc21)C(C)C,Karthikeyan M.; Glen R.C.; Bender A. General melting point prediction based on a diverse compound dataset and artificial neural networks. J. Chem. Inf. Model.; 2005; 45(3); 581-2425
27457,21106163.0,,,27458.0,http://www.aapspharmscitech.org/view.asp?art=pt070126,139.0,"1,2,4,5-tetrachlorobenzene",c1c(c(cc(c1Cl)Cl)Cl)Cl,Sepassi K; Yalkowsky SH; AAPS PharmSciTech; 7(1); E1-E8 (2006)
27904,5730.0,,,27905.0,http://msds.chem.ox.ac.uk/CA/carbon_tetrachloride.html,-23.0,carbon tetrachloride,ClC(Cl)(Cl)Cl,Oxford
28406,12838.0,,,28407.0,http://dx.doi.org/10.1080/10629360701430124,224.8,pentachlorotoluene,Clc1c(c(Cl)c(Cl)c(Cl)c1Cl)C,RAEVSKY OA; PERLOVICH GL and SCHAPER K-J. Physicochemical properties/descriptors governing the solubility and partitioning of chemicals in water-solvent-gas systems. Part 2. Solubility in 1-octanol. SAR and QSAR in Environmental Research Vol. 18 Nos. 5–6 July–September 2007 543–578
13865,8568.0,,,13866.0,http://www.amazon.com/dp/B003XEQTLE,-80.0,hexyl_acetate,O=C(C)OCCCCCC,Aldrich Chemical Company; Aldrich Catalog-Handbook of Fine Chemicals; Milwaukee; WI; 1984.
11971,2029646.0,,,11972.0,http://dx.doi.org/10.1021/ci0500132,140.0,3-acetylandrostan-17-yl acetate,O=C(OC1CCC2C3CCC4CC(CCC4(C)C3CCC21C)C(=O)C)C,Karthikeyan M.; Glen R.C.; Bender A. General melting point prediction based on a diverse compound dataset and artificial neural networks. J. Chem. Inf. Model.; 2005; 45(3); 581-3554
1193,267773.0,,,1194.0,http://www.alfa.com/en/GP100W.pgm?DSSTK=B20696,141.0,"2,3,4-trifluorobenzoic acid",c1cc(c(c(c1C(=O)O)F)F)F,Alfa Aesar
6560,174055.0,,,6561.0,http://www.alfa.com/en/GP100W.pgm?DSSTK=H27733,57.0,bis(hydroxymethyl)phenylphosphine,c1ccc(cc1)P(CO)CO,Alfa Aesar
4799,6763.0,,,4800.0,http://www.alfa.com/en/GP100W.pgm?DSSTK=A14755,81.0,4-bromobenzophenone,c1ccc(cc1)C(=O)c2ccc(cc2)Br,Alfa Aesar
9055,10484402.0,,,9056.0,http://dx.doi.org/10.1021/ci0500132,72.0,"(1R,4S,5S)-4-chloro-2,2-dimethyl-8-oxabicyclo[3.2.1]octan-3-ol",ClC1C2OC(CC2)C(C)(C)C1O,Karthikeyan M.; Glen R.C.; Bender A. General melting point prediction based on a diverse compound dataset and artificial neural networks. J. Chem. Inf. Model.; 2005; 45(3); 581-636
18695,13352.0,,,18696.0,http://www.srcinc.com/what-we-do/product.aspx?id=133,149.0,"phosphine, tris(4-methylphenyl)-",Cc1ccc(cc1)P(c2ccc(C)cc2)c3ccc(C)cc3,PHYSPROP
25809,4748060.0,,,25810.0,http://www.srcinc.com/what-we-do/product.aspx?id=133,99.8,2-chloro-2-butenoic acdi,CC=C(/Cl)C(=O)O,PHYSPROP
11013,2033790.0,,,11014.0,http://dx.doi.org/10.1021/ci0500132,257.0,"5',6',7',8'-tetramethylspiro[indene-2,3'-isochromene]-1,1',3(4'H)-trione",O=C1OC2(Cc3c(C)c(C)c(C)c(C)c13)C(=O)c1ccccc1C2=O,Karthikeyan M.; Glen R.C.; Bender A. General melting point prediction based on a diverse compound dataset and artificial neural networks. J. Chem. Inf. Model.; 2005; 45(3); 581-2596
8979,1710.0,,,8980.0,http://dx.doi.org/10.1021/ci020280x,295.0,phenytoin,O=C1NC(=O)C(N1)(c2ccccc2)c3ccccc3,Bergstrom C. A. S.; Norinder U.; Luthman K.; Artursson P. Molecular Descriptors Influencing Melting Point and Their Role in Classification of Solid Drugs. J. Chem. Inf. Comput. Sci.; (Article); 2003; 43(4); 1177-1426
20601,7415.0,,,20602.0,http://www.srcinc.com/what-we-do/product.aspx?id=133,40.5,p-dodecylaniline,Nc1ccc(CCCCCCCCCCCC)cc1,PHYSPROP
15513,3039.0,,,15514.0,http://msds.chem.ox.ac.uk/,237.5,"5-Chloro-1-{1-[3-(2-oxo-2,3-dihydro-1H-benzimidazol-1-yl)propyl]piperidin-4-yl}-1,3-dihydro-2H-benzimidazol-2-one",Clc4cc5NC(=O)N(C3CCN(CCCN1c2ccccc2NC1=O)CC3)c5cc4,academic website
3353,81133.0,,,3354.0,http://www.alfa.com/en/GP100W.pgm?DSSTK=A14379,66.0,"3,4-dimethylbenzonitrile",Cc1ccc(cc1C)C#N,Alfa Aesar
4226,1414955.0,,,4227.0,http://www.alfa.com/en/GP100W.pgm?DSSTK=L12599,169.0,"4-(2,4-dichlorophenyl)-3-thiosemicarbazide",c1cc(c(cc1Cl)Cl)NC(=S)NN,Alfa Aesar
4560,267526.0,,,4561.0,http://www.alfa.com/en/GP100W.pgm?DSSTK=H26146,210.0,4-amino-2-fluorobenzoic acid,c1cc(c(cc1N)F)C(=O)O,Alfa Aesar
11528,2031240.0,,,11529.0,http://dx.doi.org/10.1021/ci0500132,254.0,N-(3-{(Z)-[3-(acetylamino)phenyl]-NNO-azoxy}phenyl)acetamide,O=C(Nc1cccc(N=[N+]([O-])c2cccc(NC(=O)C)c2)c1)C,Karthikeyan M.; Glen R.C.; Bender A. General melting point prediction based on a diverse compound dataset and artificial neural networks. J. Chem. Inf. Model.; 2005; 45(3); 581-3111
16935,2075.0,,,16936.0,http://www.drugbank.ca/drugs/DB00321,196.5,Amitriptyline,CN(C)CCC=C1c3ccccc3CCc2ccccc12,DrugBank
4769,308792.0,,,4770.0,http://www.alfa.com/en/GP100W.pgm?DSSTK=H28116,79.0,4-bromo-3-methoxyphenol,COc1cc(ccc1Br)O,Alfa Aesar
12424,516500.0,,,12425.0,http://dx.doi.org/10.1021/ci0500132,107.0,1-Methyl-3-acetylindole,O=C(C)c1c[nH0](C)c2ccccc21,Karthikeyan M.; Glen R.C.; Bender A. General melting point prediction based on a diverse compound dataset and artificial neural networks. J. Chem. Inf. Model.; 2005; 45(3); 581-4007
1211,63054.0,,,1212.0,http://www.alfa.com/en/GP100W.pgm?DSSTK=A12686,29.0,"2,3,5,6-tetrafluorophenol",c1c(c(c(c(c1F)F)O)F)F,Alfa Aesar
8953,3789.0,,,8954.0,http://dx.doi.org/10.1021/ci020280x,159.0,lidoflazine,Cc1cccc(C)c1NC(=O)CN4CCN(CCCC(c2ccc(F)cc2)c3ccc(F)cc3)CC4,Bergstrom C. A. S.; Norinder U.; Luthman K.; Artursson P. Molecular Descriptors Influencing Melting Point and Their Role in Classification of Solid Drugs. J. Chem. Inf. Comput. Sci.; (Article); 2003; 43(4); 1177-1400
13157,6310.0,,,13158.0,http://www.questia.com/library/book/physical_properties_of_chemical_compounds_by_robert_rickert_dreisbach.jsp,-87.0,1-amino-2-methylpropane,CC(C)CN,Dreisbach R. R. Physical Properties of Chemical Compounds; Vol. III; American Chemical Society; Washington; 1961.
5432,14678.0,,,5433.0,http://www.alfa.com/en/GP100W.pgm?DSSTK=A12812,22.0,4-n-butylphenol,CCCCc1ccc(cc1)O,Alfa Aesar
4694,2017963.0,,,4695.0,http://www.alfa.com/en/GP100W.pgm?DSSTK=B20329,50.0,"4-bromo-2,6-difluorophenol",c1c(cc(c(c1F)O)F)Br,Alfa Aesar
3469,85163.0,,,3470.0,http://www.alfa.com/en/GP100W.pgm?DSSTK=A15338,160.0,"3,5-dihydroxybenzaldehyde",c1c(cc(cc1O)O)C=O,Alfa Aesar
15906,6883.0,,,15907.0,http://msds.chem.ox.ac.uk/,-12.0,Methyl benzoate,COC(=O)c1ccccc1,academic website
27702,13846658.0,,,27703.0,http://www.sigmaaldrich.com/united-states.html,165.0,4-phenylphenol,c1ccc(cc1)c2ccc(cc2)O,Sigma-Aldrich
21976,2997.0,,,21977.0,http://www.srcinc.com/what-we-do/product.aspx?id=133,163.0,dipyridamole,OCCN(CCO)c2nc1c(nc(nc1c(n2)N3CCCCC3)N(CCO)CCO)N4CCCCC4,PHYSPROP
4002,9251091.0,,,4003.0,http://www.alfa.com/en/GP100W.pgm?DSSTK=H30624,205.0,3'-hydroxy-6-methylflavone,Cc1ccc2c(c1)c(=O)cc(o2)c3cccc(c3)O,Alfa Aesar
24103,71655.0,,,24104.0,http://www.srcinc.com/what-we-do/product.aspx?id=133,94.5,1-(5-bromo-thiophen-2-yl)-ethanone,CC(=O)c1ccc(Br)s1,PHYSPROP
387,10426.0,,,388.0,http://www.alfa.com/en/GP100W.pgm?DSSTK=41444,67.0,12-tricosanone,CCCCCCCCCCCC(=O)CCCCCCCCCCC,Alfa Aesar
28293,6813.0,,,28294.0,http://dx.doi.org/10.1080/10629360701430124,357.0,naphthacene,c4c3cc2cc1ccccc1cc2cc3ccc4,RAEVSKY OA; PERLOVICH GL and SCHAPER K-J. Physicochemical properties/descriptors governing the solubility and partitioning of chemicals in water-solvent-gas systems. Part 2. Solubility in 1-octanol. SAR and QSAR in Environmental Research Vol. 18 Nos. 5–6 July–September 2007 543–578
27793,2121.0,,,27794.0,http://webbook.nist.gov/cgi/cbook.cgi?ID=C60800&Units=SI&Mask=7,108.85,antipyrine,O=C2\C=C(/N(N2c1ccccc1)C)C,NIST Web Book
10659,2034713.0,,,10660.0,http://dx.doi.org/10.1021/ci0500132,109.0,"diethyl 2,6-dihydroxy-4-(4-methoxyphenyl)-2,6-bis(trifluoromethyl)piperidine-3,5-dicarboxylate",FC(F)(F)C1(O)NC(O)(C(C(=O)OCC)C(c2ccc(OC)cc2)C1C(=O)OCC)C(F)(F)F,Karthikeyan M.; Glen R.C.; Bender A. General melting point prediction based on a diverse compound dataset and artificial neural networks. J. Chem. Inf. Model.; 2005; 45(3); 581-2242
4114,66842.0,,,4115.0,http://www.alfa.com/en/GP100W.pgm?DSSTK=B24869,104.0,3-methylphenoxyacetic acid,Cc1cccc(c1)OCC(=O)O,Alfa Aesar
28145,71358.0,,,28146.0,http://www.hbcpnetbase.com/,146.0,glucose,C([C@@H]1[C@H]([C@@H]([C@H]([C@H](O1)O)O)O)O)O,CRC Handbook
16050,11099.0,,,16051.0,http://msds.chem.ox.ac.uk/,-148.0,"Penta-1,4-diene",C=CCC=C,academic website
452,62536.0,,,453.0,http://www.alfa.com/en/GP100W.pgm?DSSTK=L13464,96.0,"1,4-phenylenediacetonitrile",c1cc(ccc1CC#N)CC#N,Alfa Aesar
6727,17789.0,,,6728.0,http://www.alfa.com/en/GP100W.pgm?DSSTK=A12375,-7.0,cyclopentanecarboxylic acid,C1CCC(C1)C(=O)O,Alfa Aesar
4570,24307.0,,,4571.0,http://www.alfa.com/en/GP100W.pgm?DSSTK=L19521,67.0,4-amino-3-bromopyridine,c1cncc(c1N)Br,Alfa Aesar
17410,29847.0,,,17411.0,http://www.srcinc.com/what-we-do/product.aspx?id=133,3.5,triazophos,CCOP(=S)(OCC)Oc1ncn(n1)c2ccccc2,PHYSPROP
15734,7956.0,,,15735.0,http://msds.chem.ox.ac.uk/,-138.0,Dimethyl ether,COC,academic website
4631,2015755.0,,,4632.0,http://www.alfa.com/en/GP100W.pgm?DSSTK=L14536,159.0,"4-benzyloxy-3,5-dimethylbenzoic acid",Cc1cc(cc(c1OCc2ccccc2)C)C(=O)O,Alfa Aesar
10354,2036350.0,,,10355.0,http://dx.doi.org/10.1021/ci0500132,222.0,"2-oxo-3'-thioxo-1,2,3',4',5',6',7',8'-octahydro-2'H-spiro[indole-3,1'-isoquinoline]-4'-carbonitrile",S=C1NC2(c3ccccc3NC2=O)C=2CCCCC=2C1C#N,Karthikeyan M.; Glen R.C.; Bender A. General melting point prediction based on a diverse compound dataset and artificial neural networks. J. Chem. Inf. Model.; 2005; 45(3); 581-1937
7364,24341.0,,,7365.0,http://www.alfa.com/en/GP100W.pgm?DSSTK=L02425,270.0,isonicotinic acid n-oxide,c1c[n+](ccc1C(=O)O)[O-],Alfa Aesar
1812,482900.0,,,1813.0,http://www.alfa.com/en/GP100W.pgm?DSSTK=A19840,97.0,"2,6-dimethyl-4-iodophenol",Cc1cc(cc(c1O)C)I,Alfa Aesar
23586,63524.0,,,23587.0,http://www.srcinc.com/what-we-do/product.aspx?id=133,98.5,phenoxyisobutyric acid,CC(C)(Oc1ccccc1)C(=O)O,PHYSPROP
17660,23490.0,,,17661.0,http://www.srcinc.com/what-we-do/product.aspx?id=133,68.0,dialifor,CCOP(=S)(OCC)SC(CCl)N2C(=O)c1ccccc1C2=O,PHYSPROP
18245,15827.0,,,18246.0,http://www.srcinc.com/what-we-do/product.aspx?id=133,197.5,octachloronaphthalene,Clc2c1c(Cl)c(Cl)c(Cl)c(Cl)c1c(Cl)c(Cl)c2Cl,PHYSPROP
20491,7672.0,,,20492.0,http://www.srcinc.com/what-we-do/product.aspx?id=133,-56.5,bromocyclohexane,BrC1CCCCC1,PHYSPROP
24593,91959.0,,,24594.0,http://www.srcinc.com/what-we-do/product.aspx?id=133,134.5,"2,4,5-triphenyl-4,5-dihydro-1h-imidazole",c1ccc(cc1)C2NC(=NC2c3ccccc3)c4ccccc4,PHYSPROP
8905,2068.0,,,8906.0,http://dx.doi.org/10.1021/ci020280x,270.0,theophylline,Cn2c(=O)n(C)c1nc[nH]c1c2=O,Bergstrom C. A. S.; Norinder U.; Luthman K.; Artursson P. Molecular Descriptors Influencing Melting Point and Their Role in Classification of Solid Drugs. J. Chem. Inf. Comput. Sci.; (Article); 2003; 43(4); 1177-1352
20425,7783.0,,,20426.0,http://www.srcinc.com/what-we-do/product.aspx?id=133,-70.0,2-chloroethyl vinyl ether,C=COCCCl,PHYSPROP
19024,11906.0,,,19025.0,http://www.srcinc.com/what-we-do/product.aspx?id=133,76.5,hexatriacontane,CCCCCCCCCCCCCCCCCCCCCCCCCCCCCCCCCCCC,PHYSPROP
3772,73974.0,,,3773.0,http://www.alfa.com/en/GP100W.pgm?DSSTK=B22562,156.0,3'-chloro-2'-methylacetanilide,Cc1c(cccc1Cl)NC(=O)C,Alfa Aesar
11423,2031670.0,,,11424.0,http://dx.doi.org/10.1021/ci0500132,117.0,"N',3-diphenylpropanehydrazide",O=C(NNc1ccccc1)CCc1ccccc1,Karthikeyan M.; Glen R.C.; Bender A. General melting point prediction based on a diverse compound dataset and artificial neural networks. J. Chem. Inf. Model.; 2005; 45(3); 581-3006
11909,2029747.0,,,11910.0,http://dx.doi.org/10.1021/ci0500132,163.0,"propyl 4-(2,3-dimethoxyphenyl)-6-methyl-2-oxo-1,2,3,4-tetrahydropyrimidine-5-carboxylate",O=C1NC(C)=C(C(=O)OCCC)C(N1)c1cccc(OC)c1OC,Karthikeyan M.; Glen R.C.; Bender A. General melting point prediction based on a diverse compound dataset and artificial neural networks. J. Chem. Inf. Model.; 2005; 45(3); 581-3492
23863,67680.0,,,23864.0,http://www.srcinc.com/what-we-do/product.aspx?id=133,-12.5,"silanediol, dimethyl-, diacetate",C[Si](C)(OC(=O)C)OC(=O)C,PHYSPROP
2580,2043483.0,,,2581.0,http://www.alfa.com/en/GP100W.pgm?DSSTK=H32862,132.0,2-fluoro-3-hydroxypyridine,c1cc(c(nc1)F)O,Alfa Aesar
12864,29657.0,,,12865.0,http://dx.doi.org/10.1021/ci0500132,65.0,1-acetyl-3-methyl-1H-indole,O=C([nH0]1cc(C)c2ccccc12)C,Karthikeyan M.; Glen R.C.; Bender A. General melting point prediction based on a diverse compound dataset and artificial neural networks. J. Chem. Inf. Model.; 2005; 45(3); 581-4447
13534,10236.0,,,13535.0,http://www.amazon.com/dp/B002IYRJWI,-25.0,"1,2,3-trimethylbenzene",Cc1cccc(C)c1C,American Petroleum Institute. Research Project 44; Selected Values of Properties of Hydrocarbons and Related Compounds. Texas A & M University; College Station; TX; 1973.
23602,63738.0,,,23603.0,http://www.srcinc.com/what-we-do/product.aspx?id=133,82.5,"1-hexyl-3,7-dimethyl xanthine",O=C2c1n(C)cnc1N(C)C(=O)N2CCCCCC,PHYSPROP
27196,10188496.0,,,27197.0,http://scripts.iucr.org/cgi-bin/paper?tk6030,161.35,"(1R,2R,4S,6S)-6-Hydroxybicyclo[2.2.1]heptane-2-carboxylic acid",O=C(O)[C@@H]1C[C@@H]2C[C@H]1[C@@H](O)C2,IUCr
25021,291315.0,,,25022.0,http://www.srcinc.com/what-we-do/product.aspx?id=133,82.0,"benzoic acid, 4-amino-, dodecyl ester",Nc1ccc(cc1)C(=O)OCCCCCCCCCCCC,PHYSPROP
26995,21242799.0,,,26996.0,http://www.srcinc.com/what-we-do/product.aspx?id=133,-62.6,"benzene, 1-chloro-4-ethyl-",CCc1ccc(Cl)cc1,PHYSPROP