,csid,donotuse,donotusebecause,key,link,mpC,name,smiles,source
5103,3052247.0,,,5104.0,http://www.alfa.com/en/GP100W.pgm?DSSTK=H26641,72.0,4-fluoro-2-methylbenzonitrile,Cc1cc(ccc1C#N)F,Alfa Aesar
24465,84387.0,,,24466.0,http://www.srcinc.com/what-we-do/product.aspx?id=133,90.0,imibenconazole,Clc3ccc(/N=C(SCc1ccc(Cl)cc1)Cn2cncn2)c(Cl)c3,PHYSPROP
3922,505120.0,,,3923.0,http://www.alfa.com/en/GP100W.pgm?DSSTK=A18606,82.0,3-fluoro-4-methoxyaniline,COc1ccc(cc1F)N,Alfa Aesar
4946,13835126.0,,,4947.0,http://www.alfa.com/en/GP100W.pgm?DSSTK=A12115,19.0,4'-chloroacetophenone,CC(=O)c1ccc(cc1)Cl,Alfa Aesar
72,581557.0,,,73.0,http://www.alfa.com/en/GP100W.pgm?DSSTK=B20478,193.0,1-phenyl-3-trifluoromethyl-2-pyrazolin-5-one,c1ccc(cc1)N2C(=O)CC(=N2)C(F)(F)F,Alfa Aesar
7020,4444561.0,,,7021.0,http://www.alfa.com/en/GP100W.pgm?DSSTK=L08685,31.0,erucic acid,CCCCCCCC/C=CCCCCCCCCCCCC(=O)O,Alfa Aesar
19355,11222.0,,,19356.0,http://www.srcinc.com/what-we-do/product.aspx?id=133,-113.6,"3-methyl-1,2-butadiene",C=C=C(C)C,PHYSPROP
8857,4024.0,,,8858.0,http://dx.doi.org/10.1021/ci020280x,147.0,metoclopramide,CCN(CC)CCNC(=O)c1cc(Cl)c(N)cc1OC,Bergstrom C. A. S.; Norinder U.; Luthman K.; Artursson P. Molecular Descriptors Influencing Melting Point and Their Role in Classification of Solid Drugs. J. Chem. Inf. Comput. Sci.; (Article); 2003; 43(4); 1177-1304
28305,9509356.0,,,28306.0,http://dx.doi.org/10.1016/j.chemosphere.2013.10.095,61.0,Naproxol acetate,O=C(OCC(c1ccc2c(c1)ccc(OC)c2)C)C,Abraham M.H. and Acree Jr. W.E. The solubility of liquid and solid compounds in dry octan-1-ol. Chemosphere (2013)
17622,24456.0,,,17623.0,http://www.srcinc.com/what-we-do/product.aspx?id=133,217.5,diacerein,CC(=O)Oc3cccc2C(=O)c1cc(cc(OC(C)=O)c1C(=O)c23)C(=O)O,PHYSPROP
23184,61297.0,,,23185.0,http://www.srcinc.com/what-we-do/product.aspx?id=133,14.2,"benzenamine, 4-fluoro-2-methyl-",Fc1ccc(N)c(C)c1,PHYSPROP
2023,455918.0,,,2024.0,http://www.alfa.com/en/GP100W.pgm?DSSTK=A12456,127.0,2-amino-6-fluorobenzonitrile,c1cc(c(c(c1)F)C#N)N,Alfa Aesar
8313,56119.0,,,8314.0,http://www.alfa.com/en/GP100W.pgm?DSSTK=A10940,-94.0,propionyl chloride,CCC(=O)Cl,Alfa Aesar
26234,10443818.0,,,26235.0,http://www.srcinc.com/what-we-do/product.aspx?id=133,200.5,"benzoic acid, 2,3,4,5,6-pentafluoro-, [1-(1,1-di",Fc1c(c(F)c(F)c(F)c1F)C(=O)N(NC(=O)c2ccccc2)C(C)(C)C,PHYSPROP
5155,61196.0,,,5156.0,http://www.alfa.com/en/GP100W.pgm?DSSTK=A12946,10.0,4-fluorobenzoyl chloride,c1cc(ccc1C(=O)Cl)F,Alfa Aesar
17271,2287.0,,,17272.0,http://dx.doi.org/10.1021/ci700307p,142.0,bifonazole,c1cc(ccc1c2ccccc2)C(c3ccccc3)n4ccnc4,Hughes LD; Palmer DS; Nigsch F and Mitchell JBO. 2008 Why are some properties more difficult to predict than others? A study of QSPR models of solubility; melting point and LogP. J. Chem. Inf. Model. 2008. 48 (1). pp 220?419
24304,78101.0,,,24305.0,http://www.srcinc.com/what-we-do/product.aspx?id=133,-41.0,"butanedinitrile, ethyl-",N#CCC(CC)C#N,PHYSPROP
16085,415.0,,,16086.0,http://msds.chem.ox.ac.uk/,-12.0,"Propane-1,3-diamine",NCCCN,academic website
1956,510436.0,,,1957.0,http://www.alfa.com/en/GP100W.pgm?DSSTK=B24673,161.0,2-amino-4-methoxy-6-methylpyrimidine,Cc1cc(nc(n1)N)OC,Alfa Aesar
431,15691.0,,,432.0,http://www.alfa.com/en/GP100W.pgm?DSSTK=B21763,-13.0,"1,6-dichlorohexane",C(CCCCl)CCCl,Alfa Aesar
326,454689.0,,,327.0,http://www.alfa.com/en/GP100W.pgm?DSSTK=L00506,46.0,1-boc-imidazole,CC(C)(C)OC(=O)n1ccnc1,Alfa Aesar
3855,10498.0,,,3856.0,http://www.alfa.com/en/GP100W.pgm?DSSTK=L05902,-51.0,3-chloropropionitrile,C(CCl)C#N,Alfa Aesar
4595,78657.0,,,4596.0,http://www.alfa.com/en/GP100W.pgm?DSSTK=B25663,129.0,4'-aminobenzanilide,c1ccc(cc1)C(=O)Nc2ccc(cc2)N,Alfa Aesar
3458,510414.0,,,3459.0,http://www.alfa.com/en/GP100W.pgm?DSSTK=B21347,86.0,"3,5-difluorobenzonitrile",c1c(cc(cc1F)F)C#N,Alfa Aesar
112,498713.0,,,113.0,http://www.alfa.com/en/GP100W.pgm?DSSTK=H27338,55.0,1-methylimidazole-5-carboxaldehyde,Cn1cncc1C=O,Alfa Aesar
20710,7190.0,,,20711.0,http://www.srcinc.com/what-we-do/product.aspx?id=133,179.6,p-toluic acid,Cc1ccc(cc1)C(O)=O,PHYSPROP
18116,16648.0,,,18117.0,http://www.srcinc.com/what-we-do/product.aspx?id=133,84.0,"malononitrile, benzal",N#CC(C#N)=C/c1ccccc1,PHYSPROP
26560,13860434.0,,,26561.0,http://www.srcinc.com/what-we-do/product.aspx?id=133,81.5,vanillin,Oc1ccc(cc1OC)C=O,PHYSPROP
19508,10829.0,,,19509.0,http://www.srcinc.com/what-we-do/product.aspx?id=133,7.6,"1,4-dimethylnaphthalene",Cc1ccc(C)c2ccccc12,PHYSPROP
13960,7148.0,,,13961.0,http://www.amazon.com/dp/B003XEQTLE,74.0,"5-nitro-1,3-dimethylbenzene",Cc1cc(C)cc(c1)[N+](=O)[O-],Aldrich Chemical Company; Aldrich Catalog-Handbook of Fine Chemicals; Milwaukee; WI; 1984.
23873,67787.0,,,23874.0,http://www.srcinc.com/what-we-do/product.aspx?id=133,95.0,3-nitrophenyl phenyl ketone,O=[N+]([O-])c1cc(ccc1)C(=O)c2ccccc2,PHYSPROP
3645,452727.0,,,3646.0,http://www.alfa.com/en/GP100W.pgm?DSSTK=L12371,121.0,3-aminothiophene-2-carboxamide,c1csc(c1N)C(=O)N,Alfa Aesar
7783,1266705.0,,,7784.0,http://www.alfa.com/en/GP100W.pgm?DSSTK=B25210,194.0,N-(4-iodophenyl)maleamic acid,c1cc(ccc1NC(=O)/C=CC(=O)O)I,Alfa Aesar
24700,111629.0,,,24701.0,http://www.srcinc.com/what-we-do/product.aspx?id=133,63.25,tiglic acid,CC=C(/C)C(=O)O,PHYSPROP
5279,11346343.0,,,5280.0,http://www.alfa.com/en/GP100W.pgm?DSSTK=L18984,33.0,4-isopropoxybenzenesulfonyl chloride,CC(C)Oc1ccc(cc1)S(=O)(=O)Cl,Alfa Aesar
5485,4286892.0,,,5486.0,http://www.alfa.com/en/GP100W.pgm?DSSTK=L04693,201.0,4-nitro-o-phenylenediamine,c1cc(c(cc1[N+](=O)[O-])N)N,Alfa Aesar
6484,13840690.0,,,6485.0,http://www.alfa.com/en/GP100W.pgm?DSSTK=A12481,-43.0,benzyl chloride,c1ccc(cc1)CCl,Alfa Aesar
18662,13507.0,,,18663.0,http://www.srcinc.com/what-we-do/product.aspx?id=133,160.0,bucetin,CCOc1ccc(cc1)NC(=O)CC(C)O,PHYSPROP
2065,62721.0,,,2066.0,http://www.alfa.com/en/GP100W.pgm?DSSTK=A18121,81.0,2-benzoylnaphthalene,c1ccc(cc1)C(=O)c2ccc3ccccc3c2,Alfa Aesar
26644,13875325.0,,,26645.0,http://www.srcinc.com/what-we-do/product.aspx?id=133,-81.5,trifluoromethyl-3-fluorobenzene,FC(F)(F)c1cc(F)ccc1,PHYSPROP
4750,2017933.0,,,4751.0,http://www.alfa.com/en/GP100W.pgm?DSSTK=H26201,100.0,"4-bromo-3,5-difluoroaniline",c1c(cc(c(c1F)Br)F)N,Alfa Aesar
1676,6838.0,,,1677.0,http://www.alfa.com/en/GP100W.pgm?DSSTK=A10654,72.0,"2,5-diphenyloxazole",c1ccc(cc1)c2cnc(o2)c3ccccc3,Alfa Aesar
18612,13711.0,,,18613.0,http://www.srcinc.com/what-we-do/product.aspx?id=133,62.5,(-)-beta-caryophyllene epoxide,C=C2CCC3OC3(C)CCC1C2CC1(C)C,PHYSPROP
13164,258.0,,,13165.0,http://www.amazon.com/dp/B002IYRJWI,-89.0,1-butanol,CCCCO,American Petroleum Institute. Research Project 44; Selected Values of Properties of Hydrocarbons and Related Compounds. Texas A & M University; College Station; TX; 1973.
3943,200913.0,,,3944.0,http://www.alfa.com/en/GP100W.pgm?DSSTK=H26168,175.0,3-fluoro-4-nitrobenzoic acid,c1cc(c(cc1C(=O)O)F)[N+](=O)[O-],Alfa Aesar
24622,96421.0,,,24623.0,http://www.srcinc.com/what-we-do/product.aspx?id=133,181.0,aminopropylon,CN(C)C(C)C(=O)NC=2C(=O)N(c1ccccc1)N(C)C=2C,PHYSPROP
27273,1126950.0,,,27274.0,http://scripts.iucr.org/cgi-bin/paper?su2027,165.0,N-[(4-Chlorophenyl)carbamothioyl]biphenyl-4-carboxamide,Clc3ccc(NC(=S)NC(=O)c2ccc(c1ccccc1)cc2)cc3,IUCr
12921,12275.0,,,12922.0,http://dx.doi.org/10.1021/ci0500132,194.0,3-Acetylindole,O=C(C)C=1C=NC2=CCC=CC2=1,Karthikeyan M.; Glen R.C.; Bender A. General melting point prediction based on a diverse compound dataset and artificial neural networks. J. Chem. Inf. Model.; 2005; 45(3); 581-4504
15397,6398.0,,,15398.0,http://msds.chem.ox.ac.uk/,-45.0,4-(2-Aminopropan-2-yl)-1-methylcyclohexanamine,CC1(N)CCC(CC1)C(C)(C)N,academic website
13696,69446.0,,,13697.0,http://www.amazon.com/dp/B003XEQTLE,45.0,4-aminobenzyl_cyanide,Nc1ccc(CC#N)cc1,Aldrich Chemical Company; Aldrich Catalog-Handbook of Fine Chemicals; Milwaukee; WI; 1984.
17713,22640.0,,,17714.0,http://www.srcinc.com/what-we-do/product.aspx?id=133,-75.5,2-ethylstyrene,CCc1ccccc1C=C,PHYSPROP
16615,6031.0,,,16616.0,http://www.drugbank.ca/drugs/DB00174,235.0,L-Asparagine,NC(=O)C[C@H](N)C(=O)O,DrugBank
28273,8470.0,,,28274.0,http://dx.doi.org/10.1080/10629360701430124,174.5,monuron,Clc1ccc(NC(=O)N(C)C)cc1,RAEVSKY OA; PERLOVICH GL and SCHAPER K-J. Physicochemical properties/descriptors governing the solubility and partitioning of chemicals in water-solvent-gas systems. Part 2. Solubility in 1-octanol. SAR and QSAR in Environmental Research Vol. 18 Nos. 5–6 July–September 2007 543–578
27277,24729349.0,,,27278.0,http://scripts.iucr.org/cgi-bin/paper?sx1056,183.5,"(1R,2R,11S,15R,19S)-19-Chloro-19-cyano-7-methoxy-14-methylpentacyclo[13.2.2.0~1,14~.0~2,11~.0~5,10~]nonadeca-5,7,9,16-tetraen-15-yl acetate",O=C(O[C@]51C=C[C@]4(C[C@]1(Cl)C#N)[C@H]3[C@@H](c2ccc(OC)cc2CC3)CC[C@@]45C)C,IUCr
13340,6176.0,,,13341.0,http://www.amazon.com/dp/B002IYRJWI,-52.0,"3,3-dimethyl-2-butanone",CC(C)(C)C(C)=O,American Petroleum Institute. Research Project 44; Selected Values of Properties of Hydrocarbons and Related Compounds. Texas A & M University; College Station; TX; 1973.
4452,31635.0,,,4453.0,http://www.alfa.com/en/GP100W.pgm?DSSTK=B22727,86.0,"4,5-dibromo-o-xylene",Cc1cc(c(cc1C)Br)Br,Alfa Aesar
14627,124616.0,,,14628.0,http://www.amazon.com/dp/B002IYRJWI,22.0,1-heptadecyne,CCCCCCCCCCCCCCCC#C,American Petroleum Institute. Research Project 44; Selected Values of Properties of Hydrocarbons and Related Compounds. Texas A & M University; College Station; TX; 1973.
5345,557051.0,,,5346.0,http://www.alfa.com/en/GP100W.pgm?DSSTK=L03319,75.0,4-methoxychalcone,COc1ccc(cc1)/C=C/C(=O)c2ccccc2,Alfa Aesar
28164,8067.0,,,28165.0,http://www.aapspharmscitech.org/view.asp?art=pt070126,230.0,hexachlorobenzene,c1(c(c(c(c(c1Cl)Cl)Cl)Cl)Cl)Cl,Sepassi K; Yalkowsky SH; AAPS PharmSciTech; 7(1); E1-E8 (2006)
21803,3694.0,,,21804.0,http://www.srcinc.com/what-we-do/product.aspx?id=133,160.5,ketorolac,O=C(O)C1CCn2c(ccc12)C(=O)c3ccccc3,PHYSPROP
4719,2053750.0,,,4720.0,http://www.alfa.com/en/GP100W.pgm?DSSTK=H52336,152.0,4-bromo-2-fluorobenzamide,c1cc(c(cc1Br)F)C(=O)N,Alfa Aesar
27566,25605.0,,,27567.0,http://dx.doi.org/10.1080/10629360701430124,78.0,"2,4,5-trichlorobiphenyl",Clc2cc(c1ccccc1)c(Cl)cc2Cl,RAEVSKY OA; PERLOVICH GL and SCHAPER K-J. Physicochemical properties/descriptors governing the solubility and partitioning of chemicals in water-solvent-gas systems. Part 2. Solubility in 1-octanol. SAR and QSAR in Environmental Research Vol. 18 Nos. 5–6 July–September 2007 543–578
6018,73200.0,,,6019.0,http://www.alfa.com/en/GP100W.pgm?DSSTK=A14296,176.0,5-nitrovanillin,COc1cc(cc(c1O)[N+](=O)[O-])C=O,Alfa Aesar
23522,63032.0,,,23523.0,http://www.srcinc.com/what-we-do/product.aspx?id=133,-20.0,cyclohexyl-hydroperoxide,OOC1CCCCC1,PHYSPROP
2245,13875320.0,,,2246.0,http://www.alfa.com/en/GP100W.pgm?DSSTK=A12315,-27.0,2-bromotoluene,Cc1ccccc1Br,Alfa Aesar
12506,307391.0,,,12507.0,http://dx.doi.org/10.1021/ci0500132,188.0,"3a,4,9,9a-tetrahydronaphtho[2,3-c]furan-1,3-dione",O=C1OC(=O)C2Cc3ccccc3CC12,Karthikeyan M.; Glen R.C.; Bender A. General melting point prediction based on a diverse compound dataset and artificial neural networks. J. Chem. Inf. Model.; 2005; 45(3); 581-4089
7539,66462.0,,,7540.0,http://www.alfa.com/en/GP100W.pgm?DSSTK=H27614,232.0,"methyl 3-amino-5,6-dichloropyrazine-2-carboxylate",COC(=O)c1c(nc(c(n1)Cl)Cl)N,Alfa Aesar
19890,9549.0,,,19891.0,http://www.srcinc.com/what-we-do/product.aspx?id=133,36.0,5-fluoro-2-nitrophenol,O=[N+]([O-])c1ccc(F)cc1O,PHYSPROP
15658,6132.0,,,15659.0,http://msds.chem.ox.ac.uk/,-146.0,Chloro(difluoro)methane,ClC(F)F,academic website
4244,286661.0,,,4245.0,http://www.alfa.com/en/GP100W.pgm?DSSTK=H25805,62.0,"4-(3,4-dimethoxyphenyl)butyric acid",COc1ccc(cc1OC)CCCC(=O)O,Alfa Aesar
20979,6714.0,,,20980.0,http://www.srcinc.com/what-we-do/product.aspx?id=133,88.5,4-chloro-2-nitrophenol,Oc1ccc(Cl)cc1[N+]([O-])=O,PHYSPROP
27679,123.0,,,27680.0,http://www.alfa.com/content/msds/USA/A13580.pdf,118.0,4-hydroxybenzaldehyde,O=Cc1ccc(O)cc1,Alfa Aesar
8957,3871.0,,,8958.0,http://dx.doi.org/10.1021/ci020280x,92.0,maprotiline,CNCCCC13CCC(c2ccccc12)c4ccccc34,Bergstrom C. A. S.; Norinder U.; Luthman K.; Artursson P. Molecular Descriptors Influencing Melting Point and Their Role in Classification of Solid Drugs. J. Chem. Inf. Comput. Sci.; (Article); 2003; 43(4); 1177-1404
16867,5142.0,,,16868.0,http://www.drugbank.ca/drugs/DB00259,165.5,Sulfanilamide,Nc1ccc(cc1)S(=O)(N)=O,DrugBank
19983,9073.0,,,19984.0,http://www.srcinc.com/what-we-do/product.aspx?id=133,220.5,"benzoic acid, 3,5-dichloro-2-hydroxy-",Oc1c(cc(Cl)cc1Cl)C(=O)O,PHYSPROP
1182,63661.0,,,1183.0,http://www.alfa.com/en/GP100W.pgm?DSSTK=L00921,105.0,"2,3,4,5-tetramethylpyrrole",Cc1c(c([nH]c1C)C)C,Alfa Aesar
11682,2030695.0,x,mixture,11683.0,http://dx.doi.org/10.1021/ci0500132,98.0,"2,4,6-trinitrophenol - 5-nitro-4,6-bis(2-phenylethenyl)benzene-1,3-diamine (2:1)",O=[N+]([O-])c1cc([N+](=O)[O-])c(O)c([N+](=O)[O-])c1.O=[N+]([O-])c1cc([N+](=O)[O-])c(O)c([N+](=O)[O-])c1.O=[N+]([O-])c1c(C=Cc2ccccc2)c(N)cc(N)c1C=Cc1ccccc1,Karthikeyan M.; Glen R.C.; Bender A. General melting point prediction based on a diverse compound dataset and artificial neural networks. J. Chem. Inf. Model.; 2005; 45(3); 581-3265
3568,13678.0,,,3569.0,http://www.alfa.com/en/GP100W.pgm?DSSTK=A10330,64.0,3-acetylbenzo[b]thiophene,CC(=O)c1csc2c1cccc2,Alfa Aesar
6795,67099.0,,,6796.0,http://www.alfa.com/en/GP100W.pgm?DSSTK=L00914,123.0,dibenzyl ketoxime,c1ccc(cc1)CC(=NO)Cc2ccccc2,Alfa Aesar
12922,12274.0,,,12923.0,http://dx.doi.org/10.1021/ci0500132,143.0,Homophthalic acid anhydride,O=C1OC(=O)c2ccccc2C1,Karthikeyan M.; Glen R.C.; Bender A. General melting point prediction based on a diverse compound dataset and artificial neural networks. J. Chem. Inf. Model.; 2005; 45(3); 581-4505
26037,10438987.0,,,26038.0,http://www.srcinc.com/what-we-do/product.aspx?id=133,129.5,"acetamide, 2-(benzoyloxy)-n-(1-methylethyl)-",CC(C)NC(=O)COC(=O)c1ccccc1,PHYSPROP
5401,11021.0,,,5402.0,http://www.alfa.com/en/GP100W.pgm?DSSTK=A15315,59.0,4-methylbenzyl alcohol,Cc1ccc(cc1)CO,Alfa Aesar
19699,10230.0,,,19700.0,http://www.srcinc.com/what-we-do/product.aspx?id=133,100.0,flavone,O=C2C=C(Oc1ccccc12)c3ccccc3,PHYSPROP
26227,10443533.0,,,26228.0,http://www.srcinc.com/what-we-do/product.aspx?id=133,203.5,"1-(3-trifluoromethyl),2-dibenzoyl-1-tert-butylhy",FC(F)(F)c1cccc(c1)C(=O)N(NC(=O)c2ccccc2)C(C)(C)C,PHYSPROP
17518,27670.0,,,17519.0,http://www.srcinc.com/what-we-do/product.aspx?id=133,38.0,heptadecylcyclohexane,CCCCCCCCCCCCCCCCCC1CCCCC1,PHYSPROP
3095,21105990.0,,,3096.0,http://www.alfa.com/en/GP100W.pgm?DSSTK=L06220,59.0,3-(2-furyl)-2-phenylpropenal,c1ccc(cc1)C(=Cc2ccco2)C=O,Alfa Aesar
24321,79201.0,,,24322.0,http://www.srcinc.com/what-we-do/product.aspx?id=133,43.0,3-hexadecanone,CCC(=O)CCCCCCCCCCCCC,PHYSPROP
12193,1466399.0,,,12194.0,http://dx.doi.org/10.1021/ci0500132,121.0,Ethyl (2Z)-2-cyano-3-[5-(2-methoxyphenyl)-2-furyl]acrylate,O=C(OCC)C(C#N)=Cc1oc(cc1)c1ccccc1OC,Karthikeyan M.; Glen R.C.; Bender A. General melting point prediction based on a diverse compound dataset and artificial neural networks. J. Chem. Inf. Model.; 2005; 45(3); 581-3776
2199,13881329.0,,,2200.0,http://www.alfa.com/en/GP100W.pgm?DSSTK=A11692,3.0,2-bromoanisole,COc1ccccc1Br,Alfa Aesar
15519,21105867.0,,,15520.0,http://msds.chem.ox.ac.uk/,2.0,5-Isopropyl-2-methylphenol,Cc1ccc(cc1O)C(C)C,academic website
5938,604080.0,,,5939.0,http://www.alfa.com/en/GP100W.pgm?DSSTK=L19670,127.0,5-iodo-2-furaldehyde,c1cc(oc1C=O)I,Alfa Aesar
19408,11077.0,,,19409.0,http://www.srcinc.com/what-we-do/product.aspx?id=133,-6.6,"3,5-dimethylpyridine",Cc1cncc(C)c1,PHYSPROP
25506,3004571.0,,,25507.0,http://www.srcinc.com/what-we-do/product.aspx?id=133,143.0,"1h-benzotriazole-1-acetamide, ?-ethyl-",NC(=O)C(CC)n2nnc1ccccc12,PHYSPROP
11400,2031769.0,,,11401.0,http://dx.doi.org/10.1021/ci0500132,145.0,"1,2-bis(4-aminophenyl)ethanone",O=C(Cc1ccc(N)cc1)c1ccc(N)cc1,Karthikeyan M.; Glen R.C.; Bender A. General melting point prediction based on a diverse compound dataset and artificial neural networks. J. Chem. Inf. Model.; 2005; 45(3); 581-2983
21789,3808.0,,,21790.0,http://www.srcinc.com/what-we-do/product.aspx?id=133,191.0,pentamidine isethionate,CN2C(CCCC2CC(O)c1ccccc1)CC(=O)c3ccccc3,PHYSPROP
6881,62970.0,,,6882.0,http://www.alfa.com/en/GP100W.pgm?DSSTK=L01090,130.0,dimesitylmethane,Cc1cc(c(c(c1)C)Cc2c(cc(cc2C)C)C)C,Alfa Aesar
445,69706.0,,,446.0,http://www.alfa.com/en/GP100W.pgm?DSSTK=L06652,101.0,"1,5-dichloro-2,4-dinitrobenzene",c1c(c(cc(c1[N+](=O)[O-])Cl)Cl)[N+](=O)[O-],Alfa Aesar
15240,6121.0,,,15241.0,http://msds.chem.ox.ac.uk/,-118.0,2-Chloropropane,CC(C)Cl,academic website
12726,85849.0,,,12727.0,http://dx.doi.org/10.1021/ci0500132,84.0,"N,N'-bis[(benzyloxy)carbonyl]cystine",S(SCC(NC(=O)OCc1ccccc1)C(=O)O)CC(NC(=O)OCc1ccccc1)C(=O)O,Karthikeyan M.; Glen R.C.; Bender A. General melting point prediction based on a diverse compound dataset and artificial neural networks. J. Chem. Inf. Model.; 2005; 45(3); 581-4309
14665,19101.0,,,14666.0,http://www.questia.com/library/book/physical_properties_of_chemical_compounds_by_robert_rickert_dreisbach.jsp,-20.0,1-iodononane,CCCCCCCCCI,Dreisbach R. R. Physical Properties of Chemical Compounds; Vol. III; American Chemical Society; Washington; 1961.
1414,68192.0,,,1415.0,http://www.alfa.com/en/GP100W.pgm?DSSTK=A19392,120.0,"2,4-diamino-6-undecyl-1,3,5-triazine",CCCCCCCCCCCc1nc(nc(n1)N)N,Alfa Aesar
16582,6020.0,,,16583.0,http://www.drugbank.ca/drugs/DB00432,187.5,Trifluridine,FC(F)(F)C1=CN(C(=O)NC1=O)[C@H]2C[C@H](O)[C@@H](CO)O2,DrugBank
19366,11186.0,,,19367.0,http://www.srcinc.com/what-we-do/product.aspx?id=133,17.0,"2,3,3,-trimethyl-2-butanol",CC(C)(C)C(C)(C)O,PHYSPROP
24693,110117.0,,,24694.0,http://www.srcinc.com/what-we-do/product.aspx?id=133,-88.4,"cyclopentane, 1,1,3,3-tetramethyl-",CC1(C)CCC(C)(C)C1,PHYSPROP
2701,69118.0,,,2702.0,http://www.alfa.com/en/GP100W.pgm?DSSTK=L01388,161.0,"2-hydroxy-4,6-dimethoxybenzoic acid",COc1cc(c(c(c1)OC)C(=O)O)O,Alfa Aesar
1319,6340.0,,,1320.0,http://www.alfa.com/en/GP100W.pgm?DSSTK=43142,-129.0,"2,3-dimethylbutane",CC(C)C(C)C,Alfa Aesar
27058,9591602.0,,,27059.0,http://scripts.iucr.org/cgi-bin/paper?na6114,123.85,4-(1H-Benzotriazol-1-ylmethyl)-3-tert-butyl-1-phenyl-1H-pyrazol-5-amine,n1c(c(c(N)n1c2ccccc2)Cn4nnc3ccccc34)C(C)(C)C,IUCr
19262,11417.0,,,19263.0,http://www.srcinc.com/what-we-do/product.aspx?id=133,110.0,5-aminoquinoline,Nc1cccc2ncccc12,PHYSPROP
8712,5807.0,,,8713.0,http://www.alfa.com/en/GP100W.pgm?DSSTK=A15227,168.0,uridine,c1cn(c(=O)[nH]c1=O)[C@H]2[C@@H]([C@@H]([C@H](O2)CO)O)O,Alfa Aesar
8966,61964.0,,,8967.0,http://dx.doi.org/10.1021/ci020280x,164.0,metralindole,COc4ccc3n1CCN(C)C2=NCCc(c12)c3c4,Bergstrom C. A. S.; Norinder U.; Luthman K.; Artursson P. Molecular Descriptors Influencing Melting Point and Their Role in Classification of Solid Drugs. J. Chem. Inf. Comput. Sci.; (Article); 2003; 43(4); 1177-1413
4465,16499480.0,,,4466.0,http://www.alfa.com/en/GP100W.pgm?DSSTK=H26764,42.0,"4,5-difluoro-2-methoxybenzyl bromide",COc1cc(c(cc1CBr)F)F,Alfa Aesar
6636,6157.0,,,6637.0,http://www.alfa.com/en/GP100W.pgm?DSSTK=A13651,-58.0,chlorotrimethylsilane,C[Si](C)(C)Cl,Alfa Aesar
15935,2891.0,,,15936.0,http://msds.chem.ox.ac.uk/,57.0,N-(4-Hydroxy-3-methoxybenzyl)nonanamide,Oc1ccc(cc1OC)CNC(=O)CCCCCCCC,academic website
17643,23912.0,,,17644.0,http://www.srcinc.com/what-we-do/product.aspx?id=133,-29.2,terbufos,CC(C)(C)SCSP(=S)(OCC)OCC,PHYSPROP
17765,21447.0,,,17766.0,http://www.srcinc.com/what-we-do/product.aspx?id=133,171.5,"2,6-dinitro-4-methylaniline",O=[N+]([O-])c1cc(C)cc([N+]([O-])=O)c1N,PHYSPROP
27309,21186510.0,,,27310.0,http://scripts.iucr.org/cgi-bin/paper?na1269,100.0,"(1R,4S)-1,4-Dimethylcyclotrideca-5,12-diyne-1,4-diol",C1#C[C@@](O)(CC[C@@](O)(C#CCCCCC1)C)C,IUCr
7441,8526.0,,,7442.0,http://www.alfa.com/en/GP100W.pgm?DSSTK=A15111,-59.0,mesityl oxide,CC(=CC(=O)C)C,Alfa Aesar
398,468898.0,,,399.0,http://www.alfa.com/en/GP100W.pgm?DSSTK=L09313,64.0,"10,12-pentacosadiynoic acid",CCCCCCCCCCCCC#CC#CCCCCCCCCC(=O)O,Alfa Aesar