,csid,donotuse,donotusebecause,key,link,mpC,name,smiles,source
9817,4644713.0,,,9818.0,http://dx.doi.org/10.1021/ci0500132,156.0,"ethyl 4-methyl-2,2-bis[(Z)-(4,7,7-trimethyl-3-oxobicyclo[2.2.1]hept-2-ylidene)methyl]pentanoate",O=C1C(=CC(C=C2C(=O)C3(C)CCC2C3(C)C)(CC(C)C)C(=O)OCC)C2CCC1(C)C2(C)C,Karthikeyan M.; Glen R.C.; Bender A. General melting point prediction based on a diverse compound dataset and artificial neural networks. J. Chem. Inf. Model.; 2005; 45(3); 581-1400
15251,7354.0,,,15252.0,http://msds.chem.ox.ac.uk/,-90.0,2-Ethylhexyl acrylate,O=C(C=C)OCC(CCCC)CC,academic website
8018,7817.0,,,8019.0,http://www.alfa.com/en/GP100W.pgm?DSSTK=B23673,-113.0,N-butyl vinyl ether,CCCCOC=C,Alfa Aesar
28320,13854248.0,,,28321.0,http://chemspider.com/13854248,-14.0,o-chloroaniline,Nc1ccccc1Cl,EPISuite-ChemSpider
12657,173607.0,x,salt,12658.0,http://dx.doi.org/10.1021/ci0500132,248.0,"6,7-dimethoxy-1,2,3,4-tetrahydroisoquinolin-8-ol hydrochloride (1:1)",Cl.Oc1c(OC)c(OC)cc2CCNCc21,Karthikeyan M.; Glen R.C.; Bender A. General melting point prediction based on a diverse compound dataset and artificial neural networks. J. Chem. Inf. Model.; 2005; 45(3); 581-4240
12201,1414905.0,,,12202.0,http://dx.doi.org/10.1021/ci0500132,187.0,"5-methyl-1,3,4-thiadiazole-2-thiol",Sc1sc([nH0][nH0]1)C,Karthikeyan M.; Glen R.C.; Bender A. General melting point prediction based on a diverse compound dataset and artificial neural networks. J. Chem. Inf. Model.; 2005; 45(3); 581-3784
9104,10484153.0,,,9105.0,http://dx.doi.org/10.1021/ci0500132,248.0,"4-hydroxy-1-methyl-3-{(4Z)-5-oxo-4-[(1,3-thiazol-2-ylamino)methylidene]-4,5-dihydro-1H-pyrazol-3-yl}quinolin-2(1H)-one",s1cc[nH0]c1NC=C1C(=O)NN=C1C=1C(=O)N(C)c2ccccc2C=1O,Karthikeyan M.; Glen R.C.; Bender A. General melting point prediction based on a diverse compound dataset and artificial neural networks. J. Chem. Inf. Model.; 2005; 45(3); 581-685
27250,21187796.0,,,27251.0,http://scripts.iucr.org/cgi-bin/paper?cr1062,108.5,"(1R,4S,5S,8S,10R,11S)-4-tert-Butoxy-11-chloro-5-methyl-10-(methylsulfanyl)tricyclo[6.2.1.0~1,5~]undecan-9-one",O=C2[C@@H]3CC[C@@]1([C@@H](OC(C)(C)C)CC[C@@]1([C@H]2SC)[C@H]3Cl)C,IUCr
11545,2031131.0,,,11546.0,http://dx.doi.org/10.1021/ci0500132,143.0,"methyl 3-(2-oxo-1,2,3,4-tetrahydroquinolin-7-yl)propanoate",O=C1Nc2cc(ccc2CC1)CCC(=O)OC,Karthikeyan M.; Glen R.C.; Bender A. General melting point prediction based on a diverse compound dataset and artificial neural networks. J. Chem. Inf. Model.; 2005; 45(3); 581-3128
23277,61740.0,,,23278.0,http://www.srcinc.com/what-we-do/product.aspx?id=133,138.0,"1,6-naphthalenediol",Oc2cccc1cc(O)ccc12,PHYSPROP
19740,10046.0,,,19741.0,http://www.srcinc.com/what-we-do/product.aspx?id=133,146.7,iodine cyanide,IC#N,PHYSPROP
3161,21242305.0,,,3162.0,http://www.alfa.com/en/GP100W.pgm?DSSTK=H26921,111.0,3-(methylsulfinyl)phenylacetic acid,CS(=O)c1cccc(c1)CC(=O)O,Alfa Aesar
27900,6593.0,,,27901.0,http://dx.doi.org/10.1080/10629360701430124,247.0,carbazole,c1ccc2c(c1)c3ccccc3[nH]2,RAEVSKY OA; PERLOVICH GL and SCHAPER K-J. Physicochemical properties/descriptors governing the solubility and partitioning of chemicals in water-solvent-gas systems. Part 2. Solubility in 1-octanol. SAR and QSAR in Environmental Research Vol. 18 Nos. 5–6 July–September 2007 543–578
17128,5543.0,,,17129.0,http://dx.doi.org/10.1021/ci700307p,222.0,cortisone acetate,CC(=O)OCC(=O)[C@@]3(O)CC[C@H]2[C@@H]4CCC1=CC(=O)CC[C@]1(C)[C@H]4C(=O)C[C@@]23C,Hughes LD; Palmer DS; Nigsch F and Mitchell JBO. 2008 Why are some properties more difficult to predict than others? A study of QSPR models of solubility; melting point and LogP. J. Chem. Inf. Model. 2008. 48 (1). pp 220?276
2727,62893.0,,,2728.0,http://www.alfa.com/en/GP100W.pgm?DSSTK=L13145,71.0,2-hydroxy-6-methoxybenzaldehyde,COc1cccc(c1C=O)O,Alfa Aesar
6440,63964.0,,,6441.0,http://www.alfa.com/en/GP100W.pgm?DSSTK=L05855,110.0,benzo[b]thiophene-3-acetic acid,c1ccc2c(c1)c(cs2)CC(=O)O,Alfa Aesar
15628,6093.0,,,15629.0,http://msds.chem.ox.ac.uk/,-88.0,Bromo(chloro)methane,BrCCl,academic website
27872,2384.0,,,27873.0,http://tinyurl.com/3qhrb6k,115.5,busulfan,O=S(=O)(OCCCCOS(=O)(=O)C)C,Sigma-Aldrich
18685,13443.0,,,18686.0,http://www.srcinc.com/what-we-do/product.aspx?id=133,-113.0,"2,2-dimethylheptane",CC(C)(C)CCCCC,PHYSPROP
27809,21429023.0,,,27810.0,http://dx.doi.org/10.1016/j.chemosphere.2013.10.095,104.0,"b-Chlordane, trans-Chlordane",C1C2C(C(C1Cl)Cl)C3(C(=C(C2(C3(Cl)Cl)Cl)Cl)Cl)Cl,Abraham M.H. and Acree Jr. W.E. The solubility of liquid and solid compounds in dry octan-1-ol. Chemosphere (2013)
13902,15088.0,,,13903.0,http://www.amazon.com/dp/B003XEQTLE,223.0,3-cyanobenzoic_acid,OC(=O)c1cccc(C#N)c1,Aldrich Chemical Company; Aldrich Catalog-Handbook of Fine Chemicals; Milwaukee; WI; 1984.
8811,3140.0,,,8812.0,http://dx.doi.org/10.1021/ci020280x,135.0,erythromycin,CCC3OC(=O)C(C)C(OC1CC(C)(OC)C(O)C(C)O1)C(C)C(OC2OC(C)CC(C2O)N(C)C)C(C)(O)CC(C)C(=O)C(C)C(O)C3(C)O,Bergstrom C. A. S.; Norinder U.; Luthman K.; Artursson P. Molecular Descriptors Influencing Melting Point and Their Role in Classification of Solid Drugs. J. Chem. Inf. Comput. Sci.; (Article); 2003; 43(4); 1177-1258
720,21111804.0,,,721.0,http://www.alfa.com/en/GP100W.pgm?DSSTK=A14572,44.0,"1,2,3-trimethoxybenzene",COc1cccc(c1OC)OC,Alfa Aesar
26693,15564506.0,,,26694.0,http://www.srcinc.com/what-we-do/product.aspx?id=133,61.0,2-chloro-8-methyl-quinoline,Cc1cccc2ccc(Cl)nc12,PHYSPROP
13561,11604.0,,,13562.0,http://www.questia.com/library/book/physical_properties_of_chemical_compounds_by_robert_rickert_dreisbach.jsp,-4.0,3-ethylphenol,CCc1cc(O)ccc1,Dreisbach R. R. Physical Properties of Chemical Compounds; Vol. I; American Chemical Society; Washington; 1955.
14091,6898.0,,,14092.0,http://www.amazon.com/dp/B003XEQTLE,59.0,benzoylacetone,O=C(CC(C)=O)c1ccccc1,Aldrich Chemical Company; Aldrich Catalog-Handbook of Fine Chemicals; Milwaukee; WI; 1984.
6613,13837760.0,,,6614.0,http://www.alfa.com/en/GP100W.pgm?DSSTK=A10164,106.0,catechol,c1ccc(c(c1)O)O,Alfa Aesar
11316,2032057.0,,,11317.0,http://dx.doi.org/10.1021/ci0500132,78.0,"2,5-diphenylpentanoic acid",O=C(O)C(CCCc1ccccc1)c1ccccc1,Karthikeyan M.; Glen R.C.; Bender A. General melting point prediction based on a diverse compound dataset and artificial neural networks. J. Chem. Inf. Model.; 2005; 45(3); 581-2899
22402,661.0,x,salt JCB,22403.0,http://www.srcinc.com/what-we-do/product.aspx?id=133,219.0,"1,2-benzenediol, 4-(2-aminoethyl)-, hydrobromide",Oc1ccc(CCN)cc1O,PHYSPROP
23638,64059.0,,,23639.0,http://www.srcinc.com/what-we-do/product.aspx?id=133,49.0,tetraphenoxysilane,O(c1ccccc1)[Si](Oc2ccccc2)(Oc3ccccc3)Oc4ccccc4,PHYSPROP
14600,15636.0,,,14601.0,http://www.questia.com/library/book/physical_properties_of_chemical_compounds_by_robert_rickert_dreisbach.jsp,29.0,2-chlorobenzotrichloride,ClC(Cl)(Cl)c1ccccc1Cl,Dreisbach R. R. Physical Properties of Chemical Compounds; Vol. I; American Chemical Society; Washington; 1955.
12512,299621.0,,,12513.0,http://dx.doi.org/10.1021/ci0500132,130.0,"2,2-Dimethyl-5-[(4-methylphenyl)hydrazono]-1,3-dioxane-4,6-dione",O=C1OC(OC(=O)C1=NNc1ccc(C)cc1)(C)C,Karthikeyan M.; Glen R.C.; Bender A. General melting point prediction based on a diverse compound dataset and artificial neural networks. J. Chem. Inf. Model.; 2005; 45(3); 581-4095
9317,7855423.0,,,9318.0,http://dx.doi.org/10.1021/ci0500132,271.0,3-methyl-2-{(1E)-1-[2-(4-nitrophenyl)hydrazinylidene]ethyl}benzo[f]quinoxaline,O=[N+]([O-])c1ccc(NN=C(C)c2[nH0]c3c([nH0]c2C)ccc2ccccc23)cc1,Karthikeyan M.; Glen R.C.; Bender A. General melting point prediction based on a diverse compound dataset and artificial neural networks. J. Chem. Inf. Model.; 2005; 45(3); 581-900
24691,110009.0,,,24692.0,http://www.srcinc.com/what-we-do/product.aspx?id=133,79.0,etiocholane,CC34CCC2C(CCC1CCCCC12C)C4CCC3,PHYSPROP
17474,28988.0,,,17475.0,http://www.srcinc.com/what-we-do/product.aspx?id=133,127.0,succinyl peroxide,O=C(CCC(=O)O)OOC(=O)CCC(=O)O,PHYSPROP
9931,4541431.0,,,9932.0,http://dx.doi.org/10.1021/ci0500132,268.0,"5-[(4-Bromophenyl)hydrazono]-2-thioxodihydropyrimidine-4,6(1H,5H)-dione",Brc1ccc(NN=C2C(=O)NC(=S)NC2=O)cc1,Karthikeyan M.; Glen R.C.; Bender A. General melting point prediction based on a diverse compound dataset and artificial neural networks. J. Chem. Inf. Model.; 2005; 45(3); 581-1514
16981,65234.0,,,16982.0,http://www.drugbank.ca/drugs/DB01094,227.5,Hesperetin,COc1ccc(cc1O)[C@@H]3CC(=O)c2c(cc(O)cc2O)O3,DrugBank
3590,2037151.0,,,3591.0,http://www.alfa.com/en/GP100W.pgm?DSSTK=H26058,66.0,3-amino-2-chloro-4-methylpyridine,Cc1ccnc(c1N)Cl,Alfa Aesar
2120,642982.0,,,2121.0,http://www.alfa.com/en/GP100W.pgm?DSSTK=A16862,255.0,"2-bromo-4,5-dimethoxycinnamic acid",COc1cc(c(cc1OC)Br)/C=C/C(=O)O,Alfa Aesar
28597,10466934.0,,,28598.0,https://scifinder.cas.org,308.0,"trans-1,4-cyclohexanedicarboxylic acid",O=C(O)[C@H]1CC[C@@H](CC1)C(O)=O,Journal of the Indian Institute of Science
8162,11883.0,,,8163.0,http://www.alfa.com/en/GP100W.pgm?DSSTK=30809,6.0,N-tetradecane,CCCCCCCCCCCCCC,Alfa Aesar
9473,4769344.0,,,9474.0,http://dx.doi.org/10.1021/ci0500132,185.0,"(3-nitrophenyl)[(5E)-4-phenyl-5-(phenylhydrazono)-4,5-dihydro-1,3,4-thiadiazol-2-yl]methanone",S1C(=NNc2ccccc2)N(N=C1C(=O)c1cccc([N+](=O)[O-])c1)c1ccccc1,Karthikeyan M.; Glen R.C.; Bender A. General melting point prediction based on a diverse compound dataset and artificial neural networks. J. Chem. Inf. Model.; 2005; 45(3); 581-1056
24483,85070.0,,,24484.0,http://www.srcinc.com/what-we-do/product.aspx?id=133,69.0,piperidin-2-yl-methanol,OCC1CCCCN1,PHYSPROP
17304,389934.0,,,17305.0,http://dx.doi.org/10.1021/ci700307p,219.0,griseofulvin,O=C2c3c(O[C@]12C(=CC(=O)C[C@H]1C)OC)c(Cl)c(OC)cc3OC,Hughes LD; Palmer DS; Nigsch F and Mitchell JBO. 2008 Why are some properties more difficult to predict than others? A study of QSPR models of solubility; melting point and LogP. J. Chem. Inf. Model. 2008. 48 (1). pp 220?452
6607,23544.0,,,6608.0,http://www.alfa.com/en/GP100W.pgm?DSSTK=A14967,200.0,camphorquinone,CC1(C2CCC1(C(=O)C2=O)C)C,Alfa Aesar
6040,2057829.0,,,6041.0,http://www.alfa.com/en/GP100W.pgm?DSSTK=L20054,192.0,6-(trifluoromethyl)nicotinic acid,c1cc(ncc1C(=O)O)C(F)(F)F,Alfa Aesar
21907,3245.0,,,21908.0,http://www.srcinc.com/what-we-do/product.aspx?id=133,175.5,"1-propanone, 1-(2,4,6-trihydroxyphenyl)-",O=C(CC)c1c(O)cc(O)cc1O,PHYSPROP
23024,59933.0,,,23025.0,http://www.srcinc.com/what-we-do/product.aspx?id=133,146.0,"benzoic acid, 2-(4-methylbenzoyl)-",OC(=O)c2ccccc2C(=O)c1ccc(C)cc1,PHYSPROP
24283,77959.0,,,24284.0,http://www.srcinc.com/what-we-do/product.aspx?id=133,97.2,methyl (1-(4-methyl)phenylsulfonyl) cyclopropane,O=S(=O)(c1ccc(C)cc1)C2(CC2)C(=O)OC,PHYSPROP
1619,3059039.0,,,1620.0,http://www.alfa.com/en/GP100W.pgm?DSSTK=H31774,91.0,"2,5-difluoro-4-methoxybenzonitrile",COc1cc(c(cc1F)C#N)F,Alfa Aesar
8929,2160.0,,,8930.0,http://dx.doi.org/10.1021/ci020280x,149.0,astemizole,COc5ccc(CCN1CCC(CC1)Nc3nc2ccccc2n3Cc4ccc(F)cc4)cc5,Bergstrom C. A. S.; Norinder U.; Luthman K.; Artursson P. Molecular Descriptors Influencing Melting Point and Their Role in Classification of Solid Drugs. J. Chem. Inf. Comput. Sci.; (Article); 2003; 43(4); 1177-1376
21166,6333.0,,,21167.0,http://www.srcinc.com/what-we-do/product.aspx?id=133,12.5,acrylic acid,C=CC(=O)O,PHYSPROP
5662,655.0,,,5663.0,http://www.alfa.com/en/GP100W.pgm?DSSTK=L07469,204.0,"5,6-dimethylbenzimidazole",Cc1cc2c(cc1C)nc[nH]2,Alfa Aesar
11123,2033281.0,,,11124.0,http://dx.doi.org/10.1021/ci0500132,96.0,"3-chlorophenyl 4,6-dimethyl-2-oxo-2H-pyran-5-carboxylate",Clc1cccc(OC(=O)C2=C(OC(=O)C=C2C)C)c1,Karthikeyan M.; Glen R.C.; Bender A. General melting point prediction based on a diverse compound dataset and artificial neural networks. J. Chem. Inf. Model.; 2005; 45(3); 581-2706
24644,99416.0,,,24645.0,http://www.srcinc.com/what-we-do/product.aspx?id=133,124.5,physovenine,CNC(=O)Oc1cc2c(cc1)N(C)C3OCCC23C,PHYSPROP
11891,2029898.0,,,11892.0,http://dx.doi.org/10.1021/ci0500132,137.0,"propanamide, 3,3,3-trifluoro-N-(1-phenylethyl)-2-(trifluoromethyl)-",FC(F)(F)C(C(=O)NC(C)c1ccccc1)C(F)(F)F,Karthikeyan M.; Glen R.C.; Bender A. General melting point prediction based on a diverse compound dataset and artificial neural networks. J. Chem. Inf. Model.; 2005; 45(3); 581-3474
2888,7166.0,,,2889.0,http://www.alfa.com/en/GP100W.pgm?DSSTK=A17726,107.0,2-methyl-5-nitroaniline,Cc1ccc(cc1N)[N+](=O)[O-],Alfa Aesar
10197,2741685.0,,,10198.0,http://dx.doi.org/10.1021/ci0500132,226.0,"14-hydroxyandrostane-3,17-dione",O=C1CCC2(C)C(CCC3C2CCC2(C)C(=O)CCC32O)C1,Karthikeyan M.; Glen R.C.; Bender A. General melting point prediction based on a diverse compound dataset and artificial neural networks. J. Chem. Inf. Model.; 2005; 45(3); 581-1780
18418,14923.0,,,18419.0,http://www.srcinc.com/what-we-do/product.aspx?id=133,85.3,"2-thiazolamine, 4,5-dihydro-",N=C1NCCS1,PHYSPROP
9191,10482712.0,,,9192.0,http://dx.doi.org/10.1021/ci0500132,216.0,(3Z)-N-hydroxy-2-(pyridin-2-yl)-3H-indol-3-imine 1-oxide,[O-][N+]=1c2ccccc2C(=NO)C=1c1[nH0]cccc1,Karthikeyan M.; Glen R.C.; Bender A. General melting point prediction based on a diverse compound dataset and artificial neural networks. J. Chem. Inf. Model.; 2005; 45(3); 581-774
19987,9046.0,x,salt JCB,19988.0,http://www.srcinc.com/what-we-do/product.aspx?id=133,229.0,opipramol hydrochloride [usan],OCCN1CCN(CC1)CCCN3c4ccccc4C=Cc2ccccc23,PHYSPROP
3681,63680.0,,,3682.0,http://www.alfa.com/en/GP100W.pgm?DSSTK=B22091,56.0,3'-bromo-4'-fluoroacetophenone,CC(=O)c1ccc(c(c1)Br)F,Alfa Aesar
1180,262711.0,,,1181.0,http://www.alfa.com/en/GP100W.pgm?DSSTK=A18954,86.0,"2,3,4,5-tetrafluorobenzoic acid",c1c(c(c(c(c1F)F)F)F)C(=O)O,Alfa Aesar
15488,7622.0,,,15489.0,http://msds.chem.ox.ac.uk/,-90.0,4-Methylpentan-2-ol,CC(C)CC(C)O,academic website
1958,212572.0,,,1959.0,http://www.alfa.com/en/GP100W.pgm?DSSTK=L15841,136.0,2-amino-4-methyl-3-nitropyridine,Cc1ccnc(c1[N+](=O)[O-])N,Alfa Aesar
9909,4644355.0,,,9910.0,http://dx.doi.org/10.1021/ci0500132,234.0,(2E)-2-(carbamothioylhydrazono)-N-(4-methoxyphenyl)propanamide,S=C(N)NN=C(C)C(=O)Nc1ccc(OC)cc1,Karthikeyan M.; Glen R.C.; Bender A. General melting point prediction based on a diverse compound dataset and artificial neural networks. J. Chem. Inf. Model.; 2005; 45(3); 581-1492
4416,6845.0,,,4417.0,http://www.alfa.com/en/GP100W.pgm?DSSTK=B22240,282.0,"4,4'-dihydroxybiphenyl",c1cc(ccc1c2ccc(cc2)O)O,Alfa Aesar
14757,8935.0,,,14758.0,http://msds.chem.ox.ac.uk/,36.0,"(1R,2S)-2-(Methylamino)-1-phenylpropan-1-ol",O[C@@H]([C@H](C)NC)c1ccccc1,academic website
25043,362633.0,,,25044.0,http://www.srcinc.com/what-we-do/product.aspx?id=133,113.0,2-methylpropane-2-sulfonic acid,CC(C)(C)S(=O)(=O)O,PHYSPROP
27420,14844.0,,,27421.0,http://dx.doi.org/10.1016/j.chemosphere.2013.10.095,85.0,1-Methylfluorene,CC1=C2CC3=CC=CC=C3C2=CC=C1,Abraham M.H. and Acree Jr. W.E. The solubility of liquid and solid compounds in dry octan-1-ol. Chemosphere (2013)
3504,2017900.0,,,3505.0,http://www.alfa.com/en/GP100W.pgm?DSSTK=H27073,101.0,"3,5-dimethyladamantane-1-carboxylic acid",CC12CC3CC(C1)(CC(C3)(C2)C(=O)O)C,Alfa Aesar
22014,2881.0,,,22015.0,http://www.srcinc.com/what-we-do/product.aspx?id=133,177.0,deoxycholic acid,O=C(O)CCC(C)C2CCC1C3CCC4CC(O)CCC4(C)C3CC(O)C12C,PHYSPROP
8263,62703.0,,,8264.0,http://www.alfa.com/en/GP100W.pgm?DSSTK=L03128,127.0,phenyl p-tolyl sulfone,Cc1ccc(cc1)S(=O)(=O)c2ccccc2,Alfa Aesar
4115,71413.0,,,4116.0,http://www.alfa.com/en/GP100W.pgm?DSSTK=L13408,-24.0,3-methylpiperidine,CC1CCCNC1,Alfa Aesar
28573,5791.0,,,28574.0,http://dx.doi.org/10.1016/j.chemosphere.2013.10.095,154.0,Testosterone,C[C@]12CC[C@H]3[C@H]([C@@H]1CC[C@@H]2O)CCC4=CC(=O)CC[C@]34C,Abraham M.H. and Acree Jr. W.E. The solubility of liquid and solid compounds in dry octan-1-ol. Chemosphere (2013)
27256,21132122.0,,,27257.0,http://scripts.iucr.org/cgi-bin/paper?cf6216,130.0,"6-(2-Methoxy-2-oxoethyl) 2-methyl 3-hydroxy-1-benzofuran-2,6-dicarboxylate",O=C(OC)COC(=O)c2ccc1c(oc(c1O)C(=O)OC)c2,IUCr
15311,13853943.0,,,15312.0,http://msds.chem.ox.ac.uk/,72.0,2-Nitroaniline,O=[N+]([O-])c1ccccc1N,academic website
5681,6413.0,,,5682.0,http://www.alfa.com/en/GP100W.pgm?DSSTK=L08624,142.0,5alpha-cholestan-3beta-ol,C[C@H](CCCC(C)C)[C@H]1CC[C@@H]2[C@@]1(CC[C@H]3[C@H]2CC[C@@H]4[C@@]3(CC[C@@H](C4)O)C)C,Alfa Aesar
23910,68202.0,,,23911.0,http://www.srcinc.com/what-we-do/product.aspx?id=133,140.5,"methanesulfonyl chloride, trichloro-",ClC(Cl)(Cl)S(Cl)(=O)=O,PHYSPROP
16629,4585.0,,,16630.0,http://www.drugbank.ca/drugs/DB01608,116.5,Propericiazine,OC1CCN(CC1)CCCN2c4ccccc4Sc3ccc(C#N)cc23,DrugBank
17105,10194105.0,,,17106.0,http://dx.doi.org/10.1021/ci700307p,115.0,atropine,CN3[C@@H]1CC[C@H]3C[C@H](C1)OC(=O)C(CO)c2ccccc2,Hughes LD; Palmer DS; Nigsch F and Mitchell JBO. 2008 Why are some properties more difficult to predict than others? A study of QSPR models of solubility; melting point and LogP. J. Chem. Inf. Model. 2008. 48 (1). pp 220?253
13551,13869462.0,,,13552.0,http://www.questia.com/library/book/physical_properties_of_chemical_compounds_by_robert_rickert_dreisbach.jsp,16.0,"4-amino-1,3-dimethylbenzene",Cc1ccc(N)c(C)c1,Dreisbach R. R. Physical Properties of Chemical Compounds; Vol. I; American Chemical Society; Washington; 1955.
16848,10482146.0,,,16849.0,http://www.drugbank.ca/drugs/DB01163,156.0,Amdinocillin,OC(=O)[C@@H]2N3C(=O)[C@@H](/N=C/N1CCCCCC1)[C@H]3SC2(C)C,DrugBank
23025,59939.0,,,23026.0,http://www.srcinc.com/what-we-do/product.aspx?id=133,68.0,tricromyl,O=C1c2ccccc2OC=C1C,PHYSPROP
2623,2062923.0,,,2624.0,http://www.alfa.com/en/GP100W.pgm?DSSTK=B25264,33.0,2-fluoro-5-methylbenzenesulfonyl chloride,Cc1ccc(c(c1)S(=O)(=O)Cl)F,Alfa Aesar
15314,11371.0,,,15315.0,http://msds.chem.ox.ac.uk/,-47.0,2-Nitrobutan-1-ol,[O-][N+](=O)C(CC)CO,academic website
13353,11996.0,,,13354.0,http://www.amazon.com/dp/B002IYRJWI,-94.0,ethyl_tert-butyl_ether,CC(C)(C)OCC,American Petroleum Institute. Research Project 44; Selected Values of Properties of Hydrocarbons and Related Compounds. Texas A & M University; College Station; TX; 1973.
20254,8113.0,,,20255.0,http://www.srcinc.com/what-we-do/product.aspx?id=133,91.0,naphthalene-2-sulfonic acid,O=S(=O)(O)c1ccc2ccccc2c1,PHYSPROP
24129,72148.0,,,24130.0,http://www.srcinc.com/what-we-do/product.aspx?id=133,99.0,"1-(2,4-dihydroxy-phenyl)-propan-1-one",O=C(CC)c1ccc(O)cc1O,PHYSPROP
24734,120488.0,,,24735.0,http://www.srcinc.com/what-we-do/product.aspx?id=133,-105.9,1-methyl-2-ethylcyclopentane (trans),CC1CCCC1CC,PHYSPROP
26242,10444159.0,,,26243.0,http://www.srcinc.com/what-we-do/product.aspx?id=133,154.0,ethyl biscoumacetate,OC=1c4ccccc4OC(=O)C=1C(C2=C(O)c3ccccc3OC2=O)C(=O)OCC,PHYSPROP
4861,901670.0,,,4862.0,http://www.alfa.com/en/GP100W.pgm?DSSTK=H27309,29.0,4'-chloro-2'-hydroxyacetophenone,CC(=O)c1ccc(cc1O)Cl,Alfa Aesar
14837,2185.0,,,14838.0,http://msds.chem.ox.ac.uk/,68.5,(E)-Diphenyldiazene,N(=N/c1ccccc1)c2ccccc2,academic website
15665,5977.0,,,15666.0,http://msds.chem.ox.ac.uk/,-63.0,Chloroform,ClC(Cl)Cl,academic website
26695,16371430.0,,,26696.0,http://www.srcinc.com/what-we-do/product.aspx?id=133,81.5,"phosphonium, tetrabutyl-, chloride",CCCCP(Cl)(CCCC)(CCCC)CCCC,PHYSPROP
7323,9903.0,,,7324.0,http://www.alfa.com/en/GP100W.pgm?DSSTK=B21442,-51.0,indane,c1ccc2c(c1)CCC2,Alfa Aesar
11958,2029687.0,,,11959.0,http://dx.doi.org/10.1021/ci0500132,164.0,17-oxoandrostane-3-carbonitrile,O=C1CCC2C3CCC4CC(C#N)CCC4(C)C3CCC12C,Karthikeyan M.; Glen R.C.; Bender A. General melting point prediction based on a diverse compound dataset and artificial neural networks. J. Chem. Inf. Model.; 2005; 45(3); 581-3541
8609,10289059.0,,,8610.0,http://www.alfa.com/en/GP100W.pgm?DSSTK=A12299,73.0,trichloroacrylic acid,C(=C(Cl)Cl)(C(=O)O)Cl,Alfa Aesar
12908,14410.0,,,12909.0,http://dx.doi.org/10.1021/ci0500132,68.0,4-[4-(o-Methoxyphenyl)-1-piperazinyl]-p-fluorobutyrophenone,Fc1ccc(cc1)C(=O)CCCN1CCN(CC1)c1ccccc1OC,Karthikeyan M.; Glen R.C.; Bender A. General melting point prediction based on a diverse compound dataset and artificial neural networks. J. Chem. Inf. Model.; 2005; 45(3); 581-4491