,csid,donotuse,donotusebecause,key,link,mpC,name,smiles,source
23162,61190.0,,,23163.0,http://www.srcinc.com/what-we-do/product.aspx?id=133,-41.7,"benzene, 1-fluoro-4-(trifluoromethyl)-",FC(F)(F)c1ccc(F)cc1,PHYSPROP
11146,2032935.0,,,11147.0,http://dx.doi.org/10.1021/ci0500132,156.0,"(7,10,10,13-tetramethyl-14-oxododecahydro-4H-1,12-methanocyclopenta[d]furo[4',3':1,8a]naphtho[2,3-e][1,3]dioxin-7-yl)methyl acetate",O=C1C(C)C2CC3OCC45CCCC(C)(COC(=O)C)C5CC5OC(OC2C15C34)(C)C,Karthikeyan M.; Glen R.C.; Bender A. General melting point prediction based on a diverse compound dataset and artificial neural networks. J. Chem. Inf. Model.; 2005; 45(3); 581-2729
10094,3448734.0,,,10095.0,http://dx.doi.org/10.1021/ci0500132,96.0,3-hydroxyandrost-4-en-17-yl acetate,O=C(OC1CCC2C3CCC4=CC(O)CCC4(C)C3CCC21C)C,Karthikeyan M.; Glen R.C.; Bender A. General melting point prediction based on a diverse compound dataset and artificial neural networks. J. Chem. Inf. Model.; 2005; 45(3); 581-1677
13270,21106442.0,,,13271.0,http://www.amazon.com/dp/B003XEQTLE,-29.0,glutaronitrile,N#CCCCC#N,Aldrich Chemical Company; Aldrich Catalog-Handbook of Fine Chemicals; Milwaukee; WI; 1984.
12329,617551.0,,,12330.0,http://dx.doi.org/10.1021/ci0500132,174.0,"5-Methyl-2-phenyl-7-trifluoromethyl-pyrazolo[1,5-a]pyrimidine",FC(F)(F)C=1[nH0]2[nH0]c(cc2N=C(C)C=1)c1ccccc1,Karthikeyan M.; Glen R.C.; Bender A. General melting point prediction based on a diverse compound dataset and artificial neural networks. J. Chem. Inf. Model.; 2005; 45(3); 581-3912
18331,15442.0,,,18332.0,http://www.srcinc.com/what-we-do/product.aspx?id=133,221.5,buthiazide,NS(=O)(=O)c2cc1c(NC(NS1(=O)=O)CC(C)C)cc2Cl,PHYSPROP
13838,12807.0,,,13839.0,http://www.amazon.com/dp/B002IYRJWI,-75.0,2-methylnonane,CC(C)CCCCCCC,American Petroleum Institute. Research Project 44; Selected Values of Properties of Hydrocarbons and Related Compounds. Texas A & M University; College Station; TX; 1973.
20137,8514.0,,,20138.0,http://www.srcinc.com/what-we-do/product.aspx?id=133,-64.6,butyl acrylate,C=CC(=O)OCCCC,PHYSPROP
21863,3463.0,,,21864.0,http://www.srcinc.com/what-we-do/product.aspx?id=133,95.5,heptachlor,ClC2=C(Cl)C3(Cl)C1C=CC(Cl)C1C2(Cl)C3(Cl)Cl,PHYSPROP
8743,59823.0,,,8744.0,http://dx.doi.org/10.1021/ci020280x,194.0,acediasulfone,Nc1ccc(cc1)S(=O)(=O)c2ccc(NCC(O)=O)cc2,Bergstrom C. A. S.; Norinder U.; Luthman K.; Artursson P. Molecular Descriptors Influencing Melting Point and Their Role in Classification of Solid Drugs. J. Chem. Inf. Comput. Sci.; (Article); 2003; 43(4); 1177-1190
20703,7211.0,,,20704.0,http://www.srcinc.com/what-we-do/product.aspx?id=133,174.0,p-dinitrobenzene,O=[N+]([O-])c1ccc(cc1)[N+]([O-])=O,PHYSPROP
27082,204830.0,,,27083.0,http://scripts.iucr.org/cgi-bin/paper?cm6002,165.85,"(1S,3aR,4S,6aR)-Tetrahydro-1H,3H-furo[3,4-c]furan-1,4-diylbis-2-methoxy-4,1-phenylene diacetate",O=C(Oc1ccc(cc1OC)[C@H]2OC[C@H]4[C@@H]2CO[C@@H]4c3ccc(OC(=O)C)c(OC)c3)C,IUCr
11164,2032852.0,,,11165.0,http://dx.doi.org/10.1021/ci0500132,167.0,"bicyclo[2.2.1]hept-5-ene-2-carboxylic acid, 3-[[(2,6-dimethylphenyl)amino]carbonyl]-",O=C(O)C1C2C=CC(C2)C1C(=O)Nc1c(C)cccc1C,Karthikeyan M.; Glen R.C.; Bender A. General melting point prediction based on a diverse compound dataset and artificial neural networks. J. Chem. Inf. Model.; 2005; 45(3); 581-2747
5503,61672.0,,,5504.0,http://www.alfa.com/en/GP100W.pgm?DSSTK=A14821,116.0,4-nitrophenylacetonitrile,c1cc(ccc1CC#N)[N+](=O)[O-],Alfa Aesar
25931,9996877.0,,,25932.0,http://www.srcinc.com/what-we-do/product.aspx?id=133,-34.5,diiodofluoromethane,FC(I)I,PHYSPROP
21538,5134.0,,,21539.0,http://www.srcinc.com/what-we-do/product.aspx?id=133,236.0,sulfamerazine,O=S(=O)(Nc1nc(C)ccn1)c2ccc(N)cc2,PHYSPROP
1825,454200.0,,,1826.0,http://www.alfa.com/en/GP100W.pgm?DSSTK=L12624,148.0,"2,6-dinitrobenzonitrile",c1cc(c(c(c1)[N+](=O)[O-])C#N)[N+](=O)[O-],Alfa Aesar
4202,6253.0,,,4203.0,http://www.alfa.com/en/GP100W.pgm?DSSTK=A13887,65.0,3-sulfolene,C1C=CCS1(=O)=O,Alfa Aesar
489,21171496.0,,,490.0,http://www.alfa.com/en/GP100W.pgm?DSSTK=A14172,21.0,"1,4-dichloro-2-iodobenzene",c1cc(c(cc1Cl)I)Cl,Alfa Aesar
15539,4444190.0,,,15540.0,http://msds.chem.ox.ac.uk/,191.0,7-Hydroxy-4-methyl-2H-chromen-2-one,Oc1ccc2c(c1)OC(=O)C=C2C,academic website
20153,8436.0,,,20154.0,http://www.srcinc.com/what-we-do/product.aspx?id=133,-25.9,diphenylsulfide,c1ccccc1Sc2ccccc2,PHYSPROP
27057,24731891.0,,,27058.0,http://scripts.iucr.org/cgi-bin/paper?ob6194,117.85,"Methyl (1S,8R,10S)-3,5-dichloro-1-(4-methoxyphenyl)-8-(phenylsulfanyl)-11-oxa-4-azatricyclo[6.2.1.0~2,7~]undeca-2,4,6-triene-10-carboxylate",O=C(OC)[C@@H]4[C@]3(O[C@](Sc1ccccc1)(c2c3c(Cl)nc(Cl)c2)C4)c5ccc(OC)cc5,IUCr
19432,11035.0,,,19433.0,http://www.srcinc.com/what-we-do/product.aspx?id=133,-100.0,3-methylheptane,CC(CC)CCCC,PHYSPROP
21781,3840.0,,,21782.0,http://www.srcinc.com/what-we-do/product.aspx?id=133,280.0,lycorine,OC2C=C4CCN3Cc1cc5OCOc5cc1C(C2O)C34,PHYSPROP
11152,2032884.0,,,11153.0,http://dx.doi.org/10.1021/ci0500132,275.0,"5-oxo-5H-[1,3]benzothiazolo[3,2-g][1,6]naphthyridine-12-carbonitrile",S1c2ccccc2N2C1=C(C#N)c1[nH0]cccc1C2=O,Karthikeyan M.; Glen R.C.; Bender A. General melting point prediction based on a diverse compound dataset and artificial neural networks. J. Chem. Inf. Model.; 2005; 45(3); 581-2735
12745,72070.0,,,12746.0,http://dx.doi.org/10.1021/ci0500132,124.0,"1,4-Diacetoxynaphthalene",O=C(Oc1ccc(OC(=O)C)c2ccccc12)C,Karthikeyan M.; Glen R.C.; Bender A. General melting point prediction based on a diverse compound dataset and artificial neural networks. J. Chem. Inf. Model.; 2005; 45(3); 581-4328
26292,10468606.0,,,26293.0,http://www.srcinc.com/what-we-do/product.aspx?id=133,82.5,simetryn,CSc1nc(nc(n1)N(C)C)N(C)C,PHYSPROP
19586,10538.0,,,19587.0,http://www.srcinc.com/what-we-do/product.aspx?id=133,140.0,agrocybin,NC(=O)C#CC#CC#CCO,PHYSPROP
10644,2034734.0,,,10645.0,http://dx.doi.org/10.1021/ci0500132,314.0,"12-(4-hydroxyphenyl)-9,9-dimethyl-8,9,10,12-tetrahydrobenzo[a]acridin-11(7H)-one",O=C1CC(C)(C)CC=2Nc3ccc4ccccc4c3C(c3ccc(O)cc3)C1=2,Karthikeyan M.; Glen R.C.; Bender A. General melting point prediction based on a diverse compound dataset and artificial neural networks. J. Chem. Inf. Model.; 2005; 45(3); 581-2227
4890,2058371.0,,,4891.0,http://www.alfa.com/en/GP100W.pgm?DSSTK=B24319,45.0,4-chloro-3-(trifluoromethyl)benzyl alcohol,c1cc(c(cc1CO)C(F)(F)F)Cl,Alfa Aesar
5374,8086.0,,,5375.0,http://www.alfa.com/en/GP100W.pgm?DSSTK=A12009,34.0,4-methyl-2-nitrophenol,Cc1ccc(c(c1)[N+](=O)[O-])O,Alfa Aesar
3059,16109.0,,,3060.0,http://www.alfa.com/en/GP100W.pgm?DSSTK=B23545,52.0,2-tert-butyl-4-methylphenol,Cc1ccc(c(c1)C(C)(C)C)O,Alfa Aesar
12517,294345.0,,,12518.0,http://dx.doi.org/10.1021/ci0500132,106.0,"Carbonothioic acid, O,O-diphenyl ester",S=C(Oc1ccccc1)Oc1ccccc1,Karthikeyan M.; Glen R.C.; Bender A. General melting point prediction based on a diverse compound dataset and artificial neural networks. J. Chem. Inf. Model.; 2005; 45(3); 581-4100
1004,13842001.0,,,1005.0,http://www.alfa.com/en/GP100W.pgm?DSSTK=A16274,-70.0,2-(diethylamino)ethanol,CCN(CC)CCO,Alfa Aesar
11255,2032597.0,,,11256.0,http://dx.doi.org/10.1021/ci0500132,64.0,"2,2'-[(4-Bromophenyl)methylene]bis(5-methylfuran)",Brc1ccc(cc1)C(c1oc(C)cc1)c1oc(C)cc1,Karthikeyan M.; Glen R.C.; Bender A. General melting point prediction based on a diverse compound dataset and artificial neural networks. J. Chem. Inf. Model.; 2005; 45(3); 581-2838
8611,21154424.0,,,8612.0,http://www.alfa.com/en/GP100W.pgm?DSSTK=A17444,-57.0,trichloromethyl chloroformate,C(=O)(OC(Cl)(Cl)Cl)Cl,Alfa Aesar
7415,2015088.0,,,7416.0,http://www.alfa.com/en/GP100W.pgm?DSSTK=A11994,90.0,L-leucine-4-nitroanilide,CC(C)C[C@@H](C(=O)Nc1ccc(cc1)[N+](=O)[O-])N,Alfa Aesar
18703,13294.0,,,18704.0,http://www.srcinc.com/what-we-do/product.aspx?id=133,209.3,"benzoic acid, pentachloro-",Clc1c(c(Cl)c(Cl)c(Cl)c1Cl)C(=O)O,PHYSPROP
6692,13840.0,,,6693.0,http://www.alfa.com/en/GP100W.pgm?DSSTK=A13068,-51.0,cyclobutanone,C1CC(=O)C1,Alfa Aesar
23411,62524.0,,,23412.0,http://www.srcinc.com/what-we-do/product.aspx?id=133,102.0,phenoxyacetamide,NC(=O)COc1ccccc1,PHYSPROP
14923,12834.0,,,14924.0,http://msds.chem.ox.ac.uk/,56.5,"1,2-Dimethyl-1H-indole",Cc2cc1ccccc1n2C,academic website
17917,19099.0,,,17918.0,http://www.srcinc.com/what-we-do/product.aspx?id=133,359.0,"2,5-thiophenedicarboxylic acid",OC(=O)c1ccc(s1)C(O)=O,PHYSPROP
10169,2980393.0,,,10170.0,http://dx.doi.org/10.1021/ci0500132,188.0,"2,3-di(acetyloxy)-4-amino-1-[1,2-di(acetyloxy)ethyl]-4-oxobutyl acetate",O=C(OCC(OC(=O)C)C(OC(=O)C)C(OC(=O)C)C(OC(=O)C)C(=O)N)C,Karthikeyan M.; Glen R.C.; Bender A. General melting point prediction based on a diverse compound dataset and artificial neural networks. J. Chem. Inf. Model.; 2005; 45(3); 581-1752
1148,68055.0,,,1149.0,http://www.alfa.com/en/GP100W.pgm?DSSTK=A14061,126.0,"2,2'-dinitrobiphenyl",c1ccc(c(c1)c2ccccc2[N+](=O)[O-])[N+](=O)[O-],Alfa Aesar
8955,36170.0,,,8956.0,http://dx.doi.org/10.1021/ci020280x,207.0,lonidamine,OC(=O)c2nn(Cc1ccc(Cl)cc1Cl)c3ccccc23,Bergstrom C. A. S.; Norinder U.; Luthman K.; Artursson P. Molecular Descriptors Influencing Melting Point and Their Role in Classification of Solid Drugs. J. Chem. Inf. Comput. Sci.; (Article); 2003; 43(4); 1177-1402
17367,31718.0,,,17368.0,http://www.srcinc.com/what-we-do/product.aspx?id=133,98.0,dinitramine,CCN(CC)c1c(cc(c(N)c1[N+]([O-])=O)C(F)(F)F)[N+]([O-])=O,PHYSPROP
2383,192186.0,,,2384.0,http://www.alfa.com/en/GP100W.pgm?DSSTK=H26111,172.0,2-chloro-5-methoxybenzoic acid,COc1ccc(c(c1)C(=O)O)Cl,Alfa Aesar
16232,4892.0,,,16233.0,http://www.drugbank.ca/drugs/DB00740,119.0,Riluzole,FC(F)(F)Oc1ccc2nc(N)sc2c1,DrugBank
1046,21106123.0,,,1047.0,http://www.alfa.com/en/GP100W.pgm?DSSTK=A10333,206.0,2-(p-hydroxyphenylazo)benzoic acid,c1ccc(c(c1)C(=O)O)N=Nc2ccc(cc2)O,Alfa Aesar
12347,595241.0,,,12348.0,http://dx.doi.org/10.1021/ci0500132,221.0,"2-(3,4-Dimethoxy-benzylidene)-benzo[4,5]imidazo[2,1-b]thiazol-3-one",S1c2[nH0]c3ccccc3[nH0]2C(=O)C1=Cc1ccc(OC)c(OC)c1,Karthikeyan M.; Glen R.C.; Bender A. General melting point prediction based on a diverse compound dataset and artificial neural networks. J. Chem. Inf. Model.; 2005; 45(3); 581-3930
2499,2078757.0,,,2500.0,http://www.alfa.com/en/GP100W.pgm?DSSTK=H25769,202.0,2-chloropyridine-4-carboxamide,c1cnc(cc1C(=O)N)Cl,Alfa Aesar
26748,21106018.0,,,26749.0,http://www.srcinc.com/what-we-do/product.aspx?id=133,67.0,3-methyl-4-chlorophenol,Oc1ccc(Cl)c(C)c1,PHYSPROP
10501,2035515.0,,,10502.0,http://dx.doi.org/10.1021/ci0500132,190.0,4-amino-3-(piperidin-1-ylmethyl)-2H-chromen-2-one,O=C1Oc2ccccc2C(N)=C1CN1CCCCC1,Karthikeyan M.; Glen R.C.; Bender A. General melting point prediction based on a diverse compound dataset and artificial neural networks. J. Chem. Inf. Model.; 2005; 45(3); 581-2084
19008,11962.0,,,19009.0,http://www.srcinc.com/what-we-do/product.aspx?id=133,75.0,"urea, n,n-diethyl-",CCN(CC)C(N)=O,PHYSPROP
21906,3246.0,,,21907.0,http://www.srcinc.com/what-we-do/product.aspx?id=133,150.5,floxuridine,FC1=CN(C(=O)NC1=O)C2CC(O)C(CO)O2,PHYSPROP
7997,75516.0,,,7998.0,http://www.alfa.com/en/GP100W.pgm?DSSTK=A16007,79.0,N-boc-L-valine,CC(C)[C@@H](C(=O)O)NC(=O)OC(C)(C)C,Alfa Aesar
22024,2839.0,,,22025.0,http://www.srcinc.com/what-we-do/product.aspx?id=133,155.0,dimethyl tetrachloroterephthalate,Clc1c(C(=O)OC)c(Cl)c(Cl)c(C(=O)OC)c1Cl,PHYSPROP
1931,586588.0,,,1932.0,http://www.alfa.com/en/GP100W.pgm?DSSTK=B23223,155.0,2-amino-4-(2-naphthyl)thiazole,c1ccc2cc(ccc2c1)c3csc(n3)N,Alfa Aesar
17778,21159.0,,,17779.0,http://www.srcinc.com/what-we-do/product.aspx?id=133,137.0,aminopentamide,NC(=O)C(CC(C)N(C)C)(c1ccccc1)c2ccccc2,PHYSPROP
13923,6794.0,,,13924.0,http://www.amazon.com/dp/B003XEQTLE,-38.0,"n,n-diethylaniline",CCN(CC)c1ccccc1,Aldrich Chemical Company; Aldrich Catalog-Handbook of Fine Chemicals; Milwaukee; WI; 1984.
10035,4210900.0,,,10036.0,http://dx.doi.org/10.1021/ci0500132,173.0,"1,4,5,6,7,8-hexahydro-1,4-(epoxymethano)naphthalene-2,2,3,3-tetracarbonitrile",O1CC2C=3CCCCC=3C1C(C#N)(C#N)C2(C#N)C#N,Karthikeyan M.; Glen R.C.; Bender A. General melting point prediction based on a diverse compound dataset and artificial neural networks. J. Chem. Inf. Model.; 2005; 45(3); 581-1618
11477,2031544.0,,,11478.0,http://dx.doi.org/10.1021/ci0500132,238.0,"(2-oxo-2,3-dihydro-1H-indol-6-yl)acetic acid",O=C1Nc2cc(ccc2C1)CC(=O)O,Karthikeyan M.; Glen R.C.; Bender A. General melting point prediction based on a diverse compound dataset and artificial neural networks. J. Chem. Inf. Model.; 2005; 45(3); 581-3060
22429,526.0,,,22430.0,http://www.srcinc.com/what-we-do/product.aspx?id=133,107.0,4-nitrobenzaldehyde,O=[N+]([O-])c1ccc(C=O)cc1,PHYSPROP
7776,215704.0,,,7777.0,http://www.alfa.com/en/GP100W.pgm?DSSTK=L06268,293.0,N-(4-carboxyphenyl)phthalimide,c1ccc2c(c1)C(=O)N(C2=O)c3ccc(cc3)C(=O)O,Alfa Aesar
26294,10468621.0,,,26295.0,http://www.srcinc.com/what-we-do/product.aspx?id=133,-33.0,tricresyl phosphate,Cc1ccc(cc1)OP(=O)(Oc2cc(C)ccc2)Oc3ccccc3C,PHYSPROP
26500,13839416.0,,,26501.0,http://www.srcinc.com/what-we-do/product.aspx?id=133,42.8,"1,6-hexanediol",OCCCCCCO,PHYSPROP
20134,8521.0,,,20135.0,http://www.srcinc.com/what-we-do/product.aspx?id=133,-80.0,dodecamethylpentasiloxane,C[Si](C)(C)O[Si](C)(C)O[Si](C)(C)O[Si](C)(C)O[Si](C)(C)C,PHYSPROP
22568,34195.0,,,22569.0,http://www.srcinc.com/what-we-do/product.aspx?id=133,207.0,"acetamide, n-(4-cyanophenyl)-",O=C(C)Nc1ccc(cc1)C#N,PHYSPROP
22157,2182.0,,,22158.0,http://www.srcinc.com/what-we-do/product.aspx?id=133,114.0,azithromycin,CN(C)C3CC(C)OC(OC2C(C)C(OC1CC(C)(OC)C(O)C(C)O1)C(C)C(=O)OC(CC)C(C)(O)C(O)C(C)N(C)CC(C)CC2(C)O)C3O,PHYSPROP
5491,63575.0,,,5492.0,http://www.alfa.com/en/GP100W.pgm?DSSTK=L16024,143.0,4-nitrophenyl benzoate,c1ccc(cc1)C(=O)Oc2ccc(cc2)[N+](=O)[O-],Alfa Aesar
7220,15846387.0,,,7221.0,http://www.alfa.com/en/GP100W.pgm?DSSTK=A15735,36.0,ethylene carbonate,C(COC(=O)[O-])OC(=O)O,Alfa Aesar
24195,74171.0,,,24196.0,http://www.srcinc.com/what-we-do/product.aspx?id=133,78.0,3-bromo-4-methyl nitrobenzene,Cc1ccc(cc1Br)[N+]([O-])=O,PHYSPROP
2588,21330149.0,,,2589.0,http://www.alfa.com/en/GP100W.pgm?DSSTK=H32618,92.0,2-fluoro-4-(trifluoromethyl)nicotinic acid,c1cnc(c(c1C(F)(F)F)C(=O)O)F,Alfa Aesar
3832,21111819.0,,,3833.0,http://www.alfa.com/en/GP100W.pgm?DSSTK=A13254,17.0,3-chlorobenzaldehyde,c1cc(cc(c1)Cl)C=O,Alfa Aesar
2966,10868.0,,,2967.0,http://www.alfa.com/en/GP100W.pgm?DSSTK=A13208,27.0,2'-nitroacetophenone,CC(=O)c1ccccc1[N+](=O)[O-],Alfa Aesar
6170,121509.0,,,6171.0,http://www.alfa.com/en/GP100W.pgm?DSSTK=L08877,213.0,6-methylnicotinic acid,Cc1ccc(cn1)C(=O)O,Alfa Aesar
16945,388804.0,,,16946.0,http://www.drugbank.ca/drugs/DB01758,205.0,3-Iodo-Tyrosine,Ic1cc(C[C@H](N)C(=O)O)ccc1O,DrugBank
18884,12433.0,,,18885.0,http://www.srcinc.com/what-we-do/product.aspx?id=133,-40.0,"butanamide, n,n-dimethyl-",CN(C)C(=O)CCC,PHYSPROP
25819,4917792.0,,,25820.0,http://www.srcinc.com/what-we-do/product.aspx?id=133,76.8,"2,3-butanedione, monooxime",CC(=O)C(C)=NO,PHYSPROP
7009,96680.0,,,7010.0,http://www.alfa.com/en/GP100W.pgm?DSSTK=B21208,164.0,D-sorbose,C([C@H]([C@@H]([C@H](C(=O)CO)O)O)O)O,Alfa Aesar
6583,71166.0,,,6584.0,http://www.alfa.com/en/GP100W.pgm?DSSTK=L02451,162.0,bromopentamethylbenzene,Cc1c(c(c(c(c1C)C)Br)C)C,Alfa Aesar
23115,60662.0,,,23116.0,http://www.srcinc.com/what-we-do/product.aspx?id=133,67.5,"pyridazine, 3,6-dichloro-",Clc1ccc(Cl)nn1,PHYSPROP
24789,125756.0,,,24790.0,http://www.srcinc.com/what-we-do/product.aspx?id=133,-22.0,"cyclohexane, 1,1'-(1-methyl-1,2-ethanediyl)bis-",CC(CC1CCCCC1)C2CCCCC2,PHYSPROP
3316,68431.0,,,3317.0,http://www.alfa.com/en/GP100W.pgm?DSSTK=A12596,36.0,"3,4-difluorophenol",c1cc(c(cc1O)F)F,Alfa Aesar
10660,2034712.0,,,10661.0,http://dx.doi.org/10.1021/ci0500132,207.0,"6-amino-1-phenyl-4-(2,4,6-trichlorophenyl)-3-(trifluoromethyl)-1,4-dihydropyrano[2,3-c]pyrazole-5-carbonitrile",Clc1cc(Cl)c(c(Cl)c1)C1c2c(OC(N)=C1C#N)[nH0]([nH0]c2C(F)(F)F)c1ccccc1,Karthikeyan M.; Glen R.C.; Bender A. General melting point prediction based on a diverse compound dataset and artificial neural networks. J. Chem. Inf. Model.; 2005; 45(3); 581-2243
7811,62574.0,,,7812.0,http://www.alfa.com/en/GP100W.pgm?DSSTK=A13820,50.0,N-(hydroxymethyl)acetamide,CC(=O)NCO,Alfa Aesar
5165,642988.0,,,5166.0,http://www.alfa.com/en/GP100W.pgm?DSSTK=L10649,125.0,4-fluorophenoxyacetic acid hydrazide,c1cc(ccc1OCC(=O)NN)F,Alfa Aesar
22403,661.0,,,22404.0,http://www.srcinc.com/what-we-do/product.aspx?id=133,128.0,dopamine,Oc1ccc(CCN)cc1O,PHYSPROP
7438,1101.0,,,7439.0,http://www.alfa.com/en/GP100W.pgm?DSSTK=B20391,-11.0,mercaptoacetic acid,C(C(=O)O)S,Alfa Aesar
5940,456040.0,,,5941.0,http://www.alfa.com/en/GP100W.pgm?DSSTK=L07404,48.0,5-iodo-2-methylaniline,Cc1ccc(cc1N)I,Alfa Aesar
407,16075.0,,,408.0,http://www.alfa.com/en/GP100W.pgm?DSSTK=B23784,-21.0,"1,8-nonadiyne",C#CCCCCCC#C,Alfa Aesar
25581,4444764.0,,,25582.0,http://www.srcinc.com/what-we-do/product.aspx?id=133,276.0,esculetin,Oc1cc2C=CC(=O)Oc2cc1O,PHYSPROP
18645,13621.0,,,18646.0,http://www.srcinc.com/what-we-do/product.aspx?id=133,54.5,"eicosanoic acid, methyl ester",O=C(CCCCCCCCCCCCCCCCCCC)OC,PHYSPROP
23206,61416.0,,,23207.0,http://www.srcinc.com/what-we-do/product.aspx?id=133,47.0,1h-2-benzopyran-1-one,O=C2OC=Cc1ccccc12,PHYSPROP
18781,12941.0,,,18782.0,http://www.srcinc.com/what-we-do/product.aspx?id=133,-4.0,"1,1,1,3,3,3-hexafluoropropan-2-ol",FC(F)(F)C(O)C(F)(F)F,PHYSPROP
16314,31105.0,,,16315.0,http://www.drugbank.ca/drugs/DB00193,180.5,Tramadol,O[C@@]1(CCCC[C@@H]1CN(C)C)c2cc(OC)ccc2,DrugBank
10292,2036568.0,x,salt - AL,10293.0,http://dx.doi.org/10.1021/ci0500132,205.0,"N-oxo-N-pyrazolo[1,5-a]pyridin-3-ylpyrazolo[1,5-a]pyridin-3-aminium nitrate",O=[N+]([O-])[O-].O=[N+](c1c[nH0][nH0]2C=CC=Cc21)c1c[nH0][nH0]2C=CC=Cc21,Karthikeyan M.; Glen R.C.; Bender A. General melting point prediction based on a diverse compound dataset and artificial neural networks. J. Chem. Inf. Model.; 2005; 45(3); 581-1875
15394,36845.0,,,15395.0,http://msds.chem.ox.ac.uk/,34.0,"3-Phenoxybenzyl 3-(2,2-dichlorovinyl)-2,2-dimethylcyclopropanecarboxylate",Cl/C(Cl)=C/C3C(C(=O)OCc2cccc(Oc1ccccc1)c2)C3(C)C,academic website
655,193623.0,,,656.0,http://www.alfa.com/en/GP100W.pgm?DSSTK=L11706,133.0,"1,2-dimethoxy-4,5-dinitrobenzene",COc1cc(c(cc1OC)[N+](=O)[O-])[N+](=O)[O-],Alfa Aesar
8834,3513.0,,,8835.0,http://dx.doi.org/10.1021/ci020280x,267.0,hydrochlorothiazide,NS(=O)(=O)c2cc1c(NCNS1(=O)=O)cc2Cl,Bergstrom C. A. S.; Norinder U.; Luthman K.; Artursson P. Molecular Descriptors Influencing Melting Point and Their Role in Classification of Solid Drugs. J. Chem. Inf. Comput. Sci.; (Article); 2003; 43(4); 1177-1281
24435,83620.0,,,24436.0,http://www.srcinc.com/what-we-do/product.aspx?id=133,-56.0,propylene glycol mono-t-butyl ether,CC(C)(C)OCC(C)O,PHYSPROP
6586,6143.0,,,6587.0,http://www.alfa.com/en/GP100W.pgm?DSSTK=A10824,-6.0,bromotrichloromethane,C(Cl)(Cl)(Cl)Br,Alfa Aesar
4788,7186.0,,,4789.0,http://www.alfa.com/en/GP100W.pgm?DSSTK=A12222,51.0,4'-bromoacetophenone,CC(=O)c1ccc(cc1)Br,Alfa Aesar
3181,213417.0,,,3182.0,http://www.alfa.com/en/GP100W.pgm?DSSTK=L19715,124.0,3-(trifluoromethyl)benzenesulfonamide,c1cc(cc(c1)S(=O)(=O)N)C(F)(F)F,Alfa Aesar
11522,2031246.0,,,11523.0,http://dx.doi.org/10.1021/ci0500132,283.0,"N,N',N'',N'''-biphenyl-2,2',4,4'-tetrayltetraacetamide",O=C(Nc1ccc(c(NC(=O)C)c1)c1ccc(NC(=O)C)cc1NC(=O)C)C,Karthikeyan M.; Glen R.C.; Bender A. General melting point prediction based on a diverse compound dataset and artificial neural networks. J. Chem. Inf. Model.; 2005; 45(3); 581-3105
11242,2032612.0,,,11243.0,http://dx.doi.org/10.1021/ci0500132,97.0,2-[Bis(5-methyl-2-furyl)methyl]-4-bromophenol,Brc1ccc(O)c(c1)C(c1oc(C)cc1)c1oc(C)cc1,Karthikeyan M.; Glen R.C.; Bender A. General melting point prediction based on a diverse compound dataset and artificial neural networks. J. Chem. Inf. Model.; 2005; 45(3); 581-2825
1675,63567.0,,,1676.0,http://www.alfa.com/en/GP100W.pgm?DSSTK=A13424,88.0,"2,5-diphenylfuran",c1ccc(cc1)c2ccc(o2)c3ccccc3,Alfa Aesar