,csid,donotuse,donotusebecause,key,link,mpC,name,smiles,source
16596,5198.0,,,16597.0,http://www.drugbank.ca/drugs/DB00231,120.0,Temazepam,Clc1ccc2c(c1)C(=NC(O)C(=O)N2C)c3ccccc3,DrugBank
16483,10162.0,,,16484.0,http://www.drugbank.ca/drugs/DB01179,228.0,Podofilox,COc1cc(cc(OC)c1OC)[C@@H]3c2cc5OCOc5cc2[C@H](O)[C@H]4COC(=O)[C@H]34,DrugBank
26455,13836021.0,,,26456.0,http://www.srcinc.com/what-we-do/product.aspx?id=133,-4.5,2-(methylamino)ethanol,CNCCO,PHYSPROP
11292,2032123.0,,,11293.0,http://dx.doi.org/10.1021/ci0500132,101.0,"5-methyl-2-(1-methylethyl)cyclohexyl 2,3-diphenylpropanoate",O=C(OC1CC(C)CCC1C(C)C)C(Cc1ccccc1)c1ccccc1,Karthikeyan M.; Glen R.C.; Bender A. General melting point prediction based on a diverse compound dataset and artificial neural networks. J. Chem. Inf. Model.; 2005; 45(3); 581-2875
12834,59562.0,,,12835.0,http://dx.doi.org/10.1021/ci0500132,74.0,"2,5-Dibromo-p-xylene",Brc1cc(C)c(Br)cc1C,Karthikeyan M.; Glen R.C.; Bender A. General melting point prediction based on a diverse compound dataset and artificial neural networks. J. Chem. Inf. Model.; 2005; 45(3); 581-4417
23267,61692.0,,,23268.0,http://www.srcinc.com/what-we-do/product.aspx?id=133,-20.0,"2-propanol, 1-chloro-2-methyl-",CC(C)(O)CCl,PHYSPROP
27055,21185887.0,,,27056.0,http://scripts.iucr.org/cgi-bin/paper?na1331,114.85,"3-[Benzyl(hydroxy)amino]-1,2,3-trideoxy-4,5-O-isopropylidene-D-threo-pent-1-ynitol",O1C[C@@H](OC1(C)C)[C@@H](C#C)N(O)Cc2ccccc2,IUCr
19104,11763.0,,,19105.0,http://www.srcinc.com/what-we-do/product.aspx?id=133,-62.8,"furan, 2,5-dimethyl-",Cc1ccc(C)o1,PHYSPROP
14264,31631.0,,,14265.0,http://de.wikipedia.org/wiki/Beilsteins_Handbuch_der_Organischen_Chemie,49.0,m-cyanobiphenyl,N#Cc1cccc(c1)c2ccccc2,Beilstein F. K.; Beilsteins Handbuch der Organischen Chemie. Springer; Berlin; 1972.
8810,59073.0,,,8811.0,http://dx.doi.org/10.1021/ci020280x,156.0,erdosteine,OC(=O)CSCC(=O)NC1CCSC1=O,Bergstrom C. A. S.; Norinder U.; Luthman K.; Artursson P. Molecular Descriptors Influencing Melting Point and Their Role in Classification of Solid Drugs. J. Chem. Inf. Comput. Sci.; (Article); 2003; 43(4); 1177-1257
9035,18311760.0,,,9036.0,http://dx.doi.org/10.1021/ci0500132,260.0,(3E)-N-hydroxy-2-phenyl-3H-indol-3-imine,ON=C1c2ccccc2N=C1c1ccccc1,Karthikeyan M.; Glen R.C.; Bender A. General melting point prediction based on a diverse compound dataset and artificial neural networks. J. Chem. Inf. Model.; 2005; 45(3); 581-611
4589,516229.0,,,4590.0,http://www.alfa.com/en/GP100W.pgm?DSSTK=B22499,165.0,"4-amino-5-chloro-2,6-dimethylpyrimidine",Cc1c(c(nc(n1)C)N)Cl,Alfa Aesar
12850,39202.0,,,12851.0,http://dx.doi.org/10.1021/ci0500132,139.0,N-[(1-Allyl-2-pyrrolidinyl)methyl]-6-methoxy-1H-benzotriazole-5-carboxamide,O=C(NCC1N(CCC1)CC=C)c1cc2[nH0][nH0][nH]c2cc1OC,Karthikeyan M.; Glen R.C.; Bender A. General melting point prediction based on a diverse compound dataset and artificial neural networks. J. Chem. Inf. Model.; 2005; 45(3); 581-4433
19361,11198.0,,,19362.0,http://www.srcinc.com/what-we-do/product.aspx?id=133,285.0,"4',5'-dibromofluorescein",Brc4c5Oc1c(Br)c(O)ccc1C3(OC(=O)c2ccccc23)c5ccc4O,PHYSPROP
15943,21106175.0,,,15944.0,http://msds.chem.ox.ac.uk/,12.0,"N,N'-Bis(2-aminoethyl)ethane-1,2-diamine",NCCNCCNCCN,academic website
16,6882.0,,,17.0,http://www.alfa.com/en/GP100W.pgm?DSSTK=L04551,67.0,"1-phenyl-1,2-ethanediol",c1ccc(cc1)C(CO)O,Alfa Aesar
22098,2447.0,,,22099.0,http://www.srcinc.com/what-we-do/product.aspx?id=133,77.0,cannabinol,Cc2cc3c1c(cc(cc1O)CCCCC)OC(C)(C)c3cc2,PHYSPROP
5153,60982.0,,,5154.0,http://www.alfa.com/en/GP100W.pgm?DSSTK=A11185,47.0,4-fluorobenzophenone,c1ccc(cc1)C(=O)c2ccc(cc2)F,Alfa Aesar
28048,8030.0,,,28049.0,http://chemspider.com/8030,147.0,diphenylacetic acid,O=C(O)C(c1ccccc1)c2ccccc2,EPISuite-ChemSpider
16132,24230.0,x,metal - AL,16133.0,http://msds.chem.ox.ac.uk/,26.0,Tetrabromogermane,Br[Ge](Br)(Br)Br,academic website
18957,12075.0,,,18958.0,http://www.srcinc.com/what-we-do/product.aspx?id=133,174.5,dihydroequilin,Oc3cc4CC=C2C(CCC1(C)C2CCC1O)c4cc3,PHYSPROP
26447,13835630.0,,,26448.0,http://www.srcinc.com/what-we-do/product.aspx?id=133,20.5,triethanolamine,OCCN(CCO)CCO,PHYSPROP
12736,73945.0,x,clearly out of range JCB,12737.0,http://dx.doi.org/10.1021/ci0500132,168.0,"3-(chloromethyl)-1,2,4,5-tetramethylbenzene",ClCc1c(C)c(C)cc(C)c1C,Karthikeyan M.; Glen R.C.; Bender A. General melting point prediction based on a diverse compound dataset and artificial neural networks. J. Chem. Inf. Model.; 2005; 45(3); 581-4319
24169,73191.0,,,24170.0,http://www.srcinc.com/what-we-do/product.aspx?id=133,193.0,"1,4-naphthoquinone, 2-anilino",O=C3C=C(Nc1ccccc1)C(=O)c2ccccc23,PHYSPROP
14465,6901.0,,,14466.0,http://www.amazon.com/dp/B003XEQTLE,70.0,phenyl_benzoate,O=C(Oc1ccccc1)c2ccccc2,Aldrich Chemical Company; Aldrich Catalog-Handbook of Fine Chemicals; Milwaukee; WI; 1984.
24890,196215.0,,,24891.0,http://www.srcinc.com/what-we-do/product.aspx?id=133,197.0,beta-amyrin,CC4(C)CCC5(C)CCC3(C)C(=CCC2C3(C)CCC1C2(C)CCC(O)C1(C)C)C5C4,PHYSPROP
22132,2275.0,,,22133.0,http://www.srcinc.com/what-we-do/product.aspx?id=133,-33.4,beta-propiolactone,O=C1CCO1,PHYSPROP
13213,12430.0,,,13214.0,http://www.amazon.com/dp/B002IYRJWI,-132.0,2-ethyl-1-butene,C=C(CC)CC,American Petroleum Institute. Research Project 44; Selected Values of Properties of Hydrocarbons and Related Compounds. Texas A & M University; College Station; TX; 1973.
9103,10484155.0,,,9104.0,http://dx.doi.org/10.1021/ci0500132,292.0,"4-hydroxy-1-methyl-3-{(4Z)-4-[(naphthalen-1-ylamino)methylidene]-5-oxo-4,5-dihydro-1H-pyrazol-3-yl}quinolin-2(1H)-one",O=C1N(C)c2ccccc2C(O)=C1C1=NNC(=O)C1=CNc1cccc2ccccc12,Karthikeyan M.; Glen R.C.; Bender A. General melting point prediction based on a diverse compound dataset and artificial neural networks. J. Chem. Inf. Model.; 2005; 45(3); 581-684
11679,2030713.0,,,11680.0,http://dx.doi.org/10.1021/ci0500132,235.0,"3,4,6,7,8,9-hexahydropyrido[3,2-g]quinolin-2(1H)-one",O=C1Nc2cc3NCCCc3cc2CC1,Karthikeyan M.; Glen R.C.; Bender A. General melting point prediction based on a diverse compound dataset and artificial neural networks. J. Chem. Inf. Model.; 2005; 45(3); 581-3262
10941,2033875.0,,,10942.0,http://dx.doi.org/10.1021/ci0500132,130.0,"5,6,6a,7-tetrahydro-12H-isoquino[2,3-a]quinolin-12-one",O=C1N2c3ccccc3CCC2Cc2ccccc12,Karthikeyan M.; Glen R.C.; Bender A. General melting point prediction based on a diverse compound dataset and artificial neural networks. J. Chem. Inf. Model.; 2005; 45(3); 581-2524
7538,110178.0,,,7539.0,http://www.alfa.com/en/GP100W.pgm?DSSTK=A10115,86.0,methyl 3-amino-4-methylthiophene-2-carboxylate,Cc1csc(c1N)C(=O)OC,Alfa Aesar
18071,17134.0,,,18072.0,http://www.srcinc.com/what-we-do/product.aspx?id=133,104.5,estramustine,ClCCN(CCCl)C(=O)Oc3cc4CCC2C(CCC1(C)C2CCC1O)c4cc3,PHYSPROP
27381,4526395.0,,,27382.0,http://pubs.acs.org/doi/pdf/10.1021/ja00901a027,159.5,(2E)-3-(4-Nitrophenyl)-1-phenyl-2-propen-1-one,[N+](=O)([O-])C1=CC=C(C=C1)\C=C\C(=O)C2=CC=CC=C2,Journal of the American Chemical Society
23270,61702.0,,,23271.0,http://www.srcinc.com/what-we-do/product.aspx?id=133,110.0,silicon tetraacetate,O=C(C)O[Si](OC(C)=O)(OC(=O)C)OC(C)=O,PHYSPROP
4497,120191.0,,,4498.0,http://www.alfa.com/en/GP100W.pgm?DSSTK=L13838,162.0,"4',7-dimethoxyisoflavone",COc1ccc(cc1)c2coc3cc(ccc3c2=O)OC,Alfa Aesar
12878,22594.0,x,salt,12879.0,http://dx.doi.org/10.1021/ci0500132,144.0,"4-formyl-N,N,N-trimethylanilinium iodide",[I-].O=Cc1ccc([N+](C)(C)C)cc1,Karthikeyan M.; Glen R.C.; Bender A. General melting point prediction based on a diverse compound dataset and artificial neural networks. J. Chem. Inf. Model.; 2005; 45(3); 581-4461
20653,7300.0,,,20654.0,http://www.srcinc.com/what-we-do/product.aspx?id=133,12.5,2-benzylpyridine,c1ccccc1Cc2ccccn2,PHYSPROP
9941,4526734.0,,,9942.0,http://dx.doi.org/10.1021/ci0500132,353.0,"5-[(4-Chlorophenyl)hydrazono]pyrimidine-2,4,6(1H,3H,5H)-trione",Clc1ccc(NN=C2C(=O)NC(=O)NC2=O)cc1,Karthikeyan M.; Glen R.C.; Bender A. General melting point prediction based on a diverse compound dataset and artificial neural networks. J. Chem. Inf. Model.; 2005; 45(3); 581-1524
4415,62365.0,,,4416.0,http://www.alfa.com/en/GP100W.pgm?DSSTK=A15097,223.0,"4,4'-dihydroxybenzophenone",c1cc(ccc1C(=O)c2ccc(cc2)O)O,Alfa Aesar
15128,6163.0,,,15129.0,http://msds.chem.ox.ac.uk/,-100.0,"2,2-Dimethylbutane",CC(C)(C)CC,academic website
4435,3491647.0,,,4436.0,http://www.alfa.com/en/GP100W.pgm?DSSTK=H31476,62.0,"4,4'-di-n-nonyl-2,2'-bipyridine",CCCCCCCCCc1ccnc(c1)c2cc(ccn2)CCCCCCCCC,Alfa Aesar
16117,389877.0,,,16118.0,http://msds.chem.ox.ac.uk/,286.0,Strychnidin-10-one,O=C2C[C@@H]7OCC=C6CN4CC[C@@]53c1ccccc1N2[C@H]3[C@H]7[C@H]6C[C@H]45,academic website
15448,110073.0,,,15449.0,http://msds.chem.ox.ac.uk/,53.5,4-Chloro-3-nitrobenzoyl chloride,O=[N+]([O-])c1cc(ccc1Cl)C(Cl)=O,academic website
11496,2031390.0,x,salt - AL,11497.0,http://dx.doi.org/10.1021/ci0500132,259.0,"2-(2-{2-chloro-3-[2-(1,1,3-trimethyl-1,3-dihydro-2H-benzo[e]indol-2-ylidene)ethylidene]cyclohex-1-en-1-yl}ethenyl)-1,1,3-trimethyl-1H-benzo[e]indolium perchlorate",ClC1=C(C=CC2=[N+](C)c3ccc4ccccc4c3C2(C)C)CCCC1=CC=C1N(C)c2ccc3ccccc3c2C1(C)C.[Cl+3]([O-])([O-])([O-])[O-],Karthikeyan M.; Glen R.C.; Bender A. General melting point prediction based on a diverse compound dataset and artificial neural networks. J. Chem. Inf. Model.; 2005; 45(3); 581-3079
26008,10438332.0,,,26009.0,http://www.srcinc.com/what-we-do/product.aspx?id=133,63.0,"2-thiophenesulfonamide, 5-[(3-hydroxypropyl)thio",NS(=O)(=O)c1ccc(SCCCO)s1,PHYSPROP
20650,7305.0,,,20651.0,http://www.srcinc.com/what-we-do/product.aspx?id=133,42.5,"oxirane, 2,2'- 1,3-phenylenebis(oxymethylene) bi",c1ccc(cc1OCC2CO2)OCC3CO3,PHYSPROP
6406,16332.0,,,6407.0,http://www.alfa.com/en/GP100W.pgm?DSSTK=A16593,170.0,"benz[a]anthracene-7,12-dione",c1ccc2c(c1)ccc3c2C(=O)c4ccccc4C3=O,Alfa Aesar
19117,11741.0,,,19118.0,http://www.srcinc.com/what-we-do/product.aspx?id=133,-50.4,2-methyl-2-heptanol,CC(C)(O)CCCCC,PHYSPROP
16136,9262.0,,,16137.0,http://msds.chem.ox.ac.uk/,-4.0,Tetradecafluorohexane,FC(F)(C(F)(F)C(F)(F)F)C(F)(F)C(F)(F)C(F)(F)F,academic website
10989,2033819.0,,,10990.0,http://dx.doi.org/10.1021/ci0500132,72.0,cyclobuta[a]naphthalen-2(1H)-one,O=C1Cc2c1ccc1ccccc21,Karthikeyan M.; Glen R.C.; Bender A. General melting point prediction based on a diverse compound dataset and artificial neural networks. J. Chem. Inf. Model.; 2005; 45(3); 581-2572
19171,11593.0,,,19172.0,http://www.srcinc.com/what-we-do/product.aspx?id=133,147.5,1-nitro-4-cyanobenzene,O=[N+]([O-])c1ccc(C#N)cc1,PHYSPROP
27395,5641722.0,,,27396.0,http://www.alfa.com/en/GP100W.pgm?DSSTK=L14102,25.0,(2S)-1-amino-2-propanol,C[C@@H](CN)O,Alfa Aesar
1116,70865.0,,,1117.0,http://www.alfa.com/en/GP100W.pgm?DSSTK=L14014,189.0,"2,2-bis(hydroxymethyl)propionic acid",CC(CO)(CO)C(=O)O,Alfa Aesar
10281,2036592.0,,,10282.0,http://dx.doi.org/10.1021/ci0500132,166.0,"benzamide, 3,5-dinitro-N-(4-phenylbutyl)-",O=[N+]([O-])c1cc([N+](=O)[O-])cc(c1)C(=O)NCCCCc1ccccc1,Karthikeyan M.; Glen R.C.; Bender A. General melting point prediction based on a diverse compound dataset and artificial neural networks. J. Chem. Inf. Model.; 2005; 45(3); 581-1864
15849,8552.0,,,15850.0,http://msds.chem.ox.ac.uk/,-3.0,Hexanoic acid,CCCCCC(=O)O,academic website
6112,78578.0,,,6113.0,http://www.alfa.com/en/GP100W.pgm?DSSTK=B23650,89.0,6-chloroindole,c1cc(cc2c1cc[nH]2)Cl,Alfa Aesar
24913,205575.0,,,24914.0,http://www.srcinc.com/what-we-do/product.aspx?id=133,110.0,"naphthalene, 1,1'-oxybis-",c3cccc4cccc(Oc2cccc1ccccc12)c34,PHYSPROP
14528,13856959.0,,,14529.0,http://www.amazon.com/dp/B003XEQTLE,19.0,benzyl_benzoate,O=C(OCc1ccccc1)c2ccccc2,Aldrich Chemical Company; Aldrich Catalog-Handbook of Fine Chemicals; Milwaukee; WI; 1984.
18084,16896.0,,,18085.0,http://www.srcinc.com/what-we-do/product.aspx?id=133,57.5,diacetone acrylamide,C=CC(=O)NC(C)(C)CC(=O)C,PHYSPROP
6438,453083.0,,,6439.0,http://www.alfa.com/en/GP100W.pgm?DSSTK=L11357,186.0,benzo[b]thiophene-2-carboxylic hydrazide,c1ccc2c(c1)cc(s2)C(=O)NN,Alfa Aesar
3845,124240.0,,,3846.0,http://www.alfa.com/en/GP100W.pgm?DSSTK=A13913,81.0,3-chlorobenzoylacetonitrile,c1cc(cc(c1)Cl)C(=O)CC#N,Alfa Aesar
11306,2032077.0,,,11307.0,http://dx.doi.org/10.1021/ci0500132,200.0,"bis[5-methyl-2-(1-methylethyl)cyclohexyl] 2,4-diacetyl-3-methylpentanedioate",O=C(OC1CC(C)CCC1C(C)C)C(C(=O)C)C(C)C(C(=O)OC1CC(C)CCC1C(C)C)C(=O)C,Karthikeyan M.; Glen R.C.; Bender A. General melting point prediction based on a diverse compound dataset and artificial neural networks. J. Chem. Inf. Model.; 2005; 45(3); 581-2889
7889,59472.0,,,7890.0,http://www.alfa.com/en/GP100W.pgm?DSSTK=L13398,47.0,N-acetylethylenediamine,CC(=O)NCCN,Alfa Aesar
15045,10497.0,,,15046.0,http://msds.chem.ox.ac.uk/,-103.0,1-Iodobutane,CCCCI,academic website
19549,10685.0,,,19550.0,http://www.srcinc.com/what-we-do/product.aspx?id=133,71.5,4-aminobenzaldehyde,O=Cc1ccc(N)cc1,PHYSPROP
9667,4645429.0,,,9668.0,http://dx.doi.org/10.1021/ci0500132,174.0,(2E)-3-oxo-3-thiophen-2-yl-2-{[3-(trifluoromethyl)phenyl]hydrazono}propanenitrile,s1cccc1C(=O)C(=NNc1cccc(c1)C(F)(F)F)C#N,Karthikeyan M.; Glen R.C.; Bender A. General melting point prediction based on a diverse compound dataset and artificial neural networks. J. Chem. Inf. Model.; 2005; 45(3); 581-1250
23938,68878.0,,,23939.0,http://www.srcinc.com/what-we-do/product.aspx?id=133,25.0,"benzoyl chloride, 3,4-dichloro-",Clc1ccc(cc1Cl)C(Cl)=O,PHYSPROP
10250,2036675.0,,,10251.0,http://dx.doi.org/10.1021/ci0500132,93.0,"10-chloro-2,4-dimethyl-5,6-dihydro-4H-benzo[d]cyclohepta[1,2-b:3,4-b']difuran",Clc1ccc2oc3CCC(C)c4cc(oc4c3c2c1)C,Karthikeyan M.; Glen R.C.; Bender A. General melting point prediction based on a diverse compound dataset and artificial neural networks. J. Chem. Inf. Model.; 2005; 45(3); 581-1833
18020,17796.0,,,18021.0,http://www.srcinc.com/what-we-do/product.aspx?id=133,46.0,methoxypromazine,CN(C)CCCN1c3ccccc3Sc2ccc(OC)cc12,PHYSPROP
25337,599522.0,,,25338.0,http://www.srcinc.com/what-we-do/product.aspx?id=133,158.0,"thiourea, n,n'-bis(2-methylphenyl)-",S=C(Nc1ccccc1C)Nc2ccccc2C,PHYSPROP
27292,24729257.0,,,27293.0,http://scripts.iucr.org/cgi-bin/paper?bs1023,306.0,"(1R,2R,3S,6S,7S,9S,10S,11R,12S,13S,14R)-11-Isopropyl-3,7,10-trimethyl-15-oxapentacyclo[7.5.1.0~1,6~.0~7,13~.0~10,14~]pentadecane-2,6,9,12,13,14-hexol",O[C@H]3[C@@H]([C@]1([C@]2(O)[C@@]45O[C@@]1(O)C[C@](C)([C@@]23O)[C@@]5(O)CC[C@@H]([C@H]4O)C)C)C(C)C,IUCr
24405,82851.0,,,24406.0,http://www.srcinc.com/what-we-do/product.aspx?id=133,46.0,pyriproxyfen,CC(COc2ccc(Oc1ccccc1)cc2)Oc3ccccn3,PHYSPROP
26994,21242792.0,,,26995.0,http://www.srcinc.com/what-we-do/product.aspx?id=133,56.5,"ethanol, 2,2,2-trichloro-1-ethoxy-",ClC(Cl)(Cl)C(O)OCC,PHYSPROP
11656,2030761.0,,,11657.0,http://dx.doi.org/10.1021/ci0500132,130.0,"tetraethyl 2,2'-[(4,6-dinitrobenzene-1,3-diyl)bis(bromomethanediyl)]dipropanedioate",BrC(c1cc(c([N+](=O)[O-])cc1[N+](=O)[O-])C(Br)C(C(=O)OCC)C(=O)OCC)C(C(=O)OCC)C(=O)OCC,Karthikeyan M.; Glen R.C.; Bender A. General melting point prediction based on a diverse compound dataset and artificial neural networks. J. Chem. Inf. Model.; 2005; 45(3); 581-3239
15931,5729.0,,,15932.0,http://msds.chem.ox.ac.uk/,-14.0,"N-(3-Aminopropyl)propane-1,3-diamine",NCCCNCCCN,academic website
20001,8996.0,,,20002.0,http://www.srcinc.com/what-we-do/product.aspx?id=133,95.0,"benzamide, n,n-diethyl-4-hydroxy-3-methoxy-",Oc1ccc(cc1OC)C(=O)N(CC)CC,PHYSPROP
6598,7510.0,,,6599.0,http://www.alfa.com/en/GP100W.pgm?DSSTK=A12377,-75.0,butyric anhydride,CCCC(=O)OC(=O)CCC,Alfa Aesar
4279,9078535.0,,,4280.0,http://www.alfa.com/en/GP100W.pgm?DSSTK=H28751,81.0,4-(boc-amino)-3-iodopyridine,CC(C)(C)OC(=O)Nc1ccncc1I,Alfa Aesar
855,66818.0,,,856.0,http://www.alfa.com/en/GP100W.pgm?DSSTK=B20136,286.0,[2.2]paracyclophane,c1cc2ccc1CCc3ccc(cc3)CC2,Alfa Aesar
23093,60464.0,,,23094.0,http://www.srcinc.com/what-we-do/product.aspx?id=133,64.5,"benzaldehyde, 4-ethoxy-3-methoxy-",COc1cc(ccc1OCC)C=O,PHYSPROP
3785,2018371.0,,,3786.0,http://www.alfa.com/en/GP100W.pgm?DSSTK=B23500,43.0,3-chloro-4-(trifluoromethylthio)aniline,c1cc(c(cc1N)Cl)SC(F)(F)F,Alfa Aesar
9025,21540471.0,,,9026.0,http://dx.doi.org/10.1021/ci0500132,259.0,"2-[N-(2,4-dinitroanilino)-C-methyl-carbonimidoyl]phenol",O=[N+]([O-])c1ccc(NN=C(C)c2ccccc2O)c([N+](=O)[O-])c1,Karthikeyan M.; Glen R.C.; Bender A. General melting point prediction based on a diverse compound dataset and artificial neural networks. J. Chem. Inf. Model.; 2005; 45(3); 581-601
303,65692.0,,,304.0,http://www.alfa.com/en/GP100W.pgm?DSSTK=A18926,80.0,1-bromo-2-methoxynaphthalene,COc1ccc2ccccc2c1Br,Alfa Aesar
20366,7884.0,,,20367.0,http://www.srcinc.com/what-we-do/product.aspx?id=133,-39.1,"formic acid, octyl ester",CCCCCCCCOC=O,PHYSPROP
3541,11077.0,,,3542.0,http://www.alfa.com/en/GP100W.pgm?DSSTK=A14877,-9.0,"3,5-lutidine",Cc1cc(cnc1)C,Alfa Aesar
3714,452973.0,,,3715.0,http://www.alfa.com/en/GP100W.pgm?DSSTK=L07071,149.0,3-bromo-5-nitrosalicylaldehyde,c1c(cc(c(c1C=O)O)Br)[N+](=O)[O-],Alfa Aesar
266,9489.0,,,267.0,http://www.alfa.com/en/GP100W.pgm?DSSTK=B22470,6.0,1-bromoperfluorooctane,C(C(C(C(C(F)(F)Br)(F)F)(F)F)(F)F)(C(C(C(F)(F)F)(F)F)(F)F)(F)F,Alfa Aesar
18284,15636.0,,,18285.0,http://www.srcinc.com/what-we-do/product.aspx?id=133,29.4,2-chlorobenzotrichloride,ClC(Cl)(Cl)c1ccccc1Cl,PHYSPROP
14136,28973.0,,,14137.0,http://www.amazon.com/dp/B003XEQTLE,65.0,4-butoxyphenol,Oc1ccc(OCCCC)cc1,Aldrich Chemical Company; Aldrich Catalog-Handbook of Fine Chemicals; Milwaukee; WI; 1984.
5525,25119.0,,,5526.0,http://www.alfa.com/en/GP100W.pgm?DSSTK=A11514,24.0,4-n-pentylphenol,CCCCCc1ccc(cc1)O,Alfa Aesar
20240,8150.0,,,20241.0,http://www.srcinc.com/what-we-do/product.aspx?id=133,71.0,"2,4-dinitrotoluene",Cc1ccc(cc1[N+](=O)[O-])[N+]([O-])=O,PHYSPROP
5154,61190.0,,,5155.0,http://www.alfa.com/en/GP100W.pgm?DSSTK=A13377,-42.0,4-fluorobenzotrifluoride,c1cc(ccc1C(F)(F)F)F,Alfa Aesar
15947,7340.0,,,15948.0,http://msds.chem.ox.ac.uk/,-70.0,"N,N-Dibutylbutan-1-amine",CCCCN(CCCC)CCCC,academic website
13883,6998.0,,,13884.0,http://www.amazon.com/dp/B003XEQTLE,-41.0,diethyl oxalate,CCOC(=O)C(=O)OCC,Aldrich Chemical Company; Aldrich Catalog-Handbook of Fine Chemicals; Milwaukee; WI; 1984.
12965,8054.0,,,12966.0,http://dx.doi.org/10.1021/ci0500132,172.0,Eudesmic acid,O=C(O)c1cc(OC)c(OC)c(OC)c1,Karthikeyan M.; Glen R.C.; Bender A. General melting point prediction based on a diverse compound dataset and artificial neural networks. J. Chem. Inf. Model.; 2005; 45(3); 581-4548
20255,8111.0,,,20256.0,http://www.srcinc.com/what-we-do/product.aspx?id=133,215.0,anthracene,c1ccc2cc3ccccc3cc2c1,PHYSPROP
18863,12499.0,,,18864.0,http://www.srcinc.com/what-we-do/product.aspx?id=133,32.8,pentafluorophenol,Fc1c(F)c(F)c(F)c(O)c1F,PHYSPROP
27920,2618.0,,,27921.0,https://scifinder.cas.org/,89.5,chloroquine,Clc1cc2nccc(c2cc1)NC(C)CCCN(CC)CC,Journal of the American Chemical Society
3352,11576.0,,,3353.0,http://www.alfa.com/en/GP100W.pgm?DSSTK=A19260,166.0,"3,4-dimethylbenzoic acid",Cc1ccc(cc1C)C(=O)O,Alfa Aesar
17655,23681.0,,,17656.0,http://www.srcinc.com/what-we-do/product.aspx?id=133,-9.3,nitrogen tetroxide,[O-][N+](=O)[N+]([O-])=O,PHYSPROP
11459,2031594.0,,,11460.0,http://dx.doi.org/10.1021/ci0500132,189.0,"N,N-bis{2-[2-(acetylamino)phenyl]ethyl}acetamide",O=C(Nc1ccccc1CCN(CCc1ccccc1NC(=O)C)C(=O)C)C,Karthikeyan M.; Glen R.C.; Bender A. General melting point prediction based on a diverse compound dataset and artificial neural networks. J. Chem. Inf. Model.; 2005; 45(3); 581-3042
6496,8060.0,,,6497.0,http://www.alfa.com/en/GP100W.pgm?DSSTK=A16184,19.0,benzyl salicylate,c1ccc(cc1)COC(=O)c2ccccc2O,Alfa Aesar
2780,7705.0,,,2781.0,http://www.alfa.com/en/GP100W.pgm?DSSTK=L13241,-60.0,2-isopropoxyethanol,CC(C)OCCO,Alfa Aesar
23471,62712.0,,,23472.0,http://www.srcinc.com/what-we-do/product.aspx?id=133,247.0,"3',4',5-trichlorosalicylanilide",Clc2ccc(NC(=O)c1cc(Cl)ccc1O)cc2Cl,PHYSPROP