,csid,donotuse,donotusebecause,key,link,mpC,name,smiles,source
13399,13835772.0,,,13400.0,http://www.questia.com/library/book/physical_properties_of_chemical_compounds_by_robert_rickert_dreisbach.jsp,31.0,o-cresol,Cc1ccccc1O,Dreisbach R. R. Physical Properties of Chemical Compounds; Vol. I; American Chemical Society; Washington; 1955.
20193,8277.0,,,20194.0,http://www.srcinc.com/what-we-do/product.aspx?id=133,32.5,1-naphthaleneacetonitrile,N#CCc2cccc1ccccc12,PHYSPROP
10980,2033829.0,,,10981.0,http://dx.doi.org/10.1021/ci0500132,74.0,"2-bromo-5-methoxybicyclo[4.2.0]octa-1,3,5-trien-7-one",Brc1ccc(OC)c2c1CC2=O,Karthikeyan M.; Glen R.C.; Bender A. General melting point prediction based on a diverse compound dataset and artificial neural networks. J. Chem. Inf. Model.; 2005; 45(3); 581-2563
1009,78496.0,,,1010.0,http://www.alfa.com/en/GP100W.pgm?DSSTK=B22389,178.0,2-(diphenylphosphino)benzoic acid,c1ccc(cc1)P(c2ccccc2)c3ccccc3C(=O)O,Alfa Aesar
28500,1031.0,,,28501.0,http://www.bedoukian.com/products/product_for_searches.asp?id=890,12.0,pyruvic acid,O=C(C(=O)O)C,Bedoukian Research
20293,8043.0,,,20294.0,http://www.srcinc.com/what-we-do/product.aspx?id=133,25.0,dioctyl phthalate,O=C(OCCCCCCCC)c1ccccc1C(=O)OCCCCCCCC,PHYSPROP
571,11810.0,,,572.0,http://www.alfa.com/en/GP100W.pgm?DSSTK=A10616,-20.0,"1,3-diiodopropane",C(CI)CI,Alfa Aesar
19912,9418.0,,,19913.0,http://www.srcinc.com/what-we-do/product.aspx?id=133,36.5,prenylamine,CC(Cc1ccccc1)NCCC(c2ccccc2)c3ccccc3,PHYSPROP
19913,9413.0,,,19914.0,http://www.srcinc.com/what-we-do/product.aspx?id=133,159.0,"benzoic acid, 2,6-difluoro-",OC(=O)c1c(F)cccc1F,PHYSPROP
608,125472.0,,,609.0,http://www.alfa.com/en/GP100W.pgm?DSSTK=L10640,58.0,"1,3-bis[(trimethylsilyl)ethynyl]benzene",C[Si](C)(C)C#Cc1cccc(c1)C#C[Si](C)(C)C,Alfa Aesar
5064,124526.0,,,5065.0,http://www.alfa.com/en/GP100W.pgm?DSSTK=A19806,62.0,4-ethoxybenzonitrile,CCOc1ccc(cc1)C#N,Alfa Aesar
3761,714888.0,,,3762.0,http://www.alfa.com/en/GP100W.pgm?DSSTK=H26932,84.0,3-chloro-2-cyanopyridine,c1cc(c(nc1)C#N)Cl,Alfa Aesar
19122,11728.0,,,19123.0,http://www.srcinc.com/what-we-do/product.aspx?id=133,55.0,n-formylhydrazine,NNC=O,PHYSPROP
22606,35632.0,,,22607.0,http://www.srcinc.com/what-we-do/product.aspx?id=133,256.0,"propanamide, 2-amino-n-(2,6-dimethylphenyl)-",O=C(Nc1c(C)cccc1C)C(C)N,PHYSPROP
6542,15471.0,,,6543.0,http://www.alfa.com/en/GP100W.pgm?DSSTK=16684,58.0,bis(4-bromophenyl) ether,c1cc(ccc1Oc2ccc(cc2)Br)Br,Alfa Aesar
19323,11290.0,,,19324.0,http://www.srcinc.com/what-we-do/product.aspx?id=133,92.0,3-nitro-o-toluidine,Cc1c(cccc1N)[N+]([O-])=O,PHYSPROP
22587,35013.0,,,22588.0,http://www.srcinc.com/what-we-do/product.aspx?id=133,209.0,"2,7-dichlorodibenzo-p-dioxin",Clc1ccc2Oc3ccc(Cl)cc3Oc2c1,PHYSPROP
23196,61380.0,,,23197.0,http://www.srcinc.com/what-we-do/product.aspx?id=133,195.0,atranorin,O=Cc2c(O)cc(C)c(C(=O)Oc1cc(C)c(C(=O)OC)c(O)c1C)c2O,PHYSPROP
1014,7781.0,,,1015.0,http://www.alfa.com/en/GP100W.pgm?DSSTK=A15744,-9.0,2-(ethylamino)ethanol,CCNCCO,Alfa Aesar
27669,15489.0,,,27670.0,http://dx.doi.org/10.1080/10629360701430124,78.0,4-chlorobiphenyl,Clc2ccc(c1ccccc1)cc2,RAEVSKY OA; PERLOVICH GL and SCHAPER K-J. Physicochemical properties/descriptors governing the solubility and partitioning of chemicals in water-solvent-gas systems. Part 2. Solubility in 1-octanol. SAR and QSAR in Environmental Research Vol. 18 Nos. 5–6 July–September 2007 543–578
9477,4766498.0,,,9478.0,http://dx.doi.org/10.1021/ci0500132,296.0,"4,4'-{benzene-1,4-diylbis[(Z)-1-chloroethene-2,1-diyl]}bis(3-nitrobenzonitrile)",ClC(=Cc1ccc(cc1)C=C(Cl)c1ccc(C#N)cc1[N+](=O)[O-])c1ccc(C#N)cc1[N+](=O)[O-],Karthikeyan M.; Glen R.C.; Bender A. General melting point prediction based on a diverse compound dataset and artificial neural networks. J. Chem. Inf. Model.; 2005; 45(3); 581-1060
8729,19953927.0,,,8730.0,http://www.alfa.com/en/GP100W.pgm?DSSTK=41400,21.0,vinylene carbonate,C(=C/OC(=O)[O-])OC(=O)O,Alfa Aesar
10624,2034770.0,,,10625.0,http://dx.doi.org/10.1021/ci0500132,156.0,"(2E)-2-(1,3-benzothiazol-2-yl)-3-(2-oxo-2H-chromen-3-yl)but-2-enenitrile",s1c2ccccc2[nH0]c1C(C#N)=C(C)C1=Cc2ccccc2OC1=O,Karthikeyan M.; Glen R.C.; Bender A. General melting point prediction based on a diverse compound dataset and artificial neural networks. J. Chem. Inf. Model.; 2005; 45(3); 581-2207
26714,20152670.0,,,26715.0,http://www.srcinc.com/what-we-do/product.aspx?id=133,153.0,1-xylylazo-2-naphthol,Cc3cc(/N=N/c1c2ccccc2ccc1O)c(C)cc3,PHYSPROP
12713,88708.0,,,12714.0,http://dx.doi.org/10.1021/ci0500132,75.0,"4,5-Dihydro-3,5-diphenylisoxazole",O1N=C(CC1c1ccccc1)c1ccccc1,Karthikeyan M.; Glen R.C.; Bender A. General melting point prediction based on a diverse compound dataset and artificial neural networks. J. Chem. Inf. Model.; 2005; 45(3); 581-4296
13633,17558.0,,,13634.0,http://www.amazon.com/dp/B002IYRJWI,-80.0,2-methyloctane,CC(C)CCCCCC,American Petroleum Institute. Research Project 44; Selected Values of Properties of Hydrocarbons and Related Compounds. Texas A & M University; College Station; TX; 1973.
13085,1262.0,,,13086.0,http://dx.doi.org/10.1021/ci0500132,152.0,DL-Naproxen,O=C(O)C(C)c1ccc2cc(OC)ccc2c1,Karthikeyan M.; Glen R.C.; Bender A. General melting point prediction based on a diverse compound dataset and artificial neural networks. J. Chem. Inf. Model.; 2005; 45(3); 581-4668
4218,74286.0,,,4219.0,http://www.alfa.com/en/GP100W.pgm?DSSTK=A13211,206.0,4-(1-imidazolyl)phenol,c1cc(ccc1n2ccnc2)O,Alfa Aesar
17334,5026.0,,,17335.0,http://dx.doi.org/10.1021/ci700307p,252.5,sulfadiazine,O=S(=O)(Nc1ncccn1)c2ccc(N)cc2,Hughes LD; Palmer DS; Nigsch F and Mitchell JBO. 2008 Why are some properties more difficult to predict than others? A study of QSPR models of solubility; melting point and LogP. J. Chem. Inf. Model. 2008. 48 (1). pp 220?482
16642,31872.0,,,16643.0,http://www.drugbank.ca/drugs/DB00680,156.5,Moricizine,O=C(OCC)Nc1cc2N(c3ccccc3Sc2cc1)C(=O)CCN4CCOCC4,DrugBank
17831,20350.0,,,17832.0,http://www.srcinc.com/what-we-do/product.aspx?id=133,289.5,buquinolate,CC(C)COc1cc2ncc(c(O)c2cc1OCC(C)C)C(=O)OCC,PHYSPROP
17842,20198.0,,,17843.0,http://www.srcinc.com/what-we-do/product.aspx?id=133,187.0,"cis-1,2,2-trimethyl-1,3-cyclopentanedicarboxyl*",CC1(CCC(C(=O)O)C1(C)C)C(=O)O,PHYSPROP
25196,510851.0,,,25197.0,http://www.srcinc.com/what-we-do/product.aspx?id=133,51.5,2-(trifluoromethyl)acrylic acid,FC(F)(F)C(=C)C(=O)O,PHYSPROP
17786,21129.0,,,17787.0,http://www.srcinc.com/what-we-do/product.aspx?id=133,95.0,mebhydroline,CN3Cc4c1ccccc1n(Cc2ccccc2)c4CC3,PHYSPROP
24711,120065.0,,,24712.0,http://www.srcinc.com/what-we-do/product.aspx?id=133,-16.7,"benzene, 1-ethoxy-2-fluoro-",CCOc1ccccc1F,PHYSPROP
5341,67982.0,,,5342.0,http://www.alfa.com/en/GP100W.pgm?DSSTK=A14999,-10.0,4-methoxybenzylamine,COc1ccc(cc1)CN,Alfa Aesar
9938,4528712.0,,,9939.0,http://dx.doi.org/10.1021/ci0500132,72.0,(1E)-5-Isopropenyl-2-methyl-2-cyclohexen-1-one oxime,ON=C1CC(CC=C1C)C(=C)C,Karthikeyan M.; Glen R.C.; Bender A. General melting point prediction based on a diverse compound dataset and artificial neural networks. J. Chem. Inf. Model.; 2005; 45(3); 581-1521
11517,2031318.0,x,salt - AL,11518.0,http://dx.doi.org/10.1021/ci0500132,277.0,"2,3-dimethyl-1-(4-methylphenyl)-5-nitro-1H-3,1-benzimidazol-3-ium iodide",[I-].O=[N+]([O-])c1ccc2[nH0](c3ccc(C)cc3)c([nH0+](C)c2c1)C,Karthikeyan M.; Glen R.C.; Bender A. General melting point prediction based on a diverse compound dataset and artificial neural networks. J. Chem. Inf. Model.; 2005; 45(3); 581-3100
9521,4719022.0,,,9522.0,http://dx.doi.org/10.1021/ci0500132,271.0,"(2E)-2-(1,3-benzothiazol-2-yl)-2-[(2,5-dichlorophenyl)hydrazono]ethanamide",Clc1ccc(Cl)c(NN=C(c2sc3ccccc3[nH0]2)C(=O)N)c1,Karthikeyan M.; Glen R.C.; Bender A. General melting point prediction based on a diverse compound dataset and artificial neural networks. J. Chem. Inf. Model.; 2005; 45(3); 581-1104
335,2409139.0,,,336.0,http://www.alfa.com/en/GP100W.pgm?DSSTK=H27823,158.0,1-boc-3-oxopiperazine,CC(C)(C)OC(=O)N1CCNC(=O)C1,Alfa Aesar
26312,10469017.0,,,26313.0,http://www.srcinc.com/what-we-do/product.aspx?id=133,118.0,flubenzimine,FC(F)(F)/N=C/2SC(=Nc1ccccc1)N(C2=N/C(F)(F)F)c3ccccc3,PHYSPROP
4283,2017280.0,,,4284.0,http://www.alfa.com/en/GP100W.pgm?DSSTK=L19953,148.0,4-(bromomethyl)benzeneboronic acid,B(c1ccc(cc1)CBr)(O)O,Alfa Aesar
16356,388319.0,,,16357.0,http://www.drugbank.ca/drugs/DB00141,205.0,N-Acetyl-D-glucosamine,OC1O[C@H](CO)[C@@H](O)[C@H](O)[C@H]1NC(C)=O,DrugBank
14851,82827.0,,,14852.0,http://msds.chem.ox.ac.uk/,130.0,"1-(2-Fluorophenyl)-1-(4-fluorophenyl)-2-(1H-1,2,4-triazol-1-yl)ethanol",OC(Cn1cncn1)(c2ccccc2F)c3ccc(F)cc3,academic website
17633,24310.0,,,17634.0,http://www.srcinc.com/what-we-do/product.aspx?id=133,247.0,apazone,CN(C)C2=Nc1ccc(C)cc1N3C(=O)C(CCC)C(=O)N23,PHYSPROP
27126,4800760.0,,,27127.0,http://scripts.iucr.org/cgi-bin/paper?cf2055,72.35,"(2E)-3-(2,4-Dichlorophenyl)-1-phenylprop-2-en-1-one",Clc2cc(Cl)ccc2/C=C/C(=O)c1ccccc1,IUCr
27908,10772140.0,,,27909.0,http://www.alfa.com/content/msds/USA/A11482.pdf,61.5,chloroacetic acid,ClCC(O)=O,Alfa Aesar
14543,11573.0,,,14544.0,http://de.wikipedia.org/wiki/Beilsteins_Handbuch_der_Organischen_Chemie,33.0,methyl_3-bromobenzoate,Brc1cc(ccc1)C(=O)OC,Beilstein F. K.; Beilsteins Handbuch der Organischen Chemie. Springer; Berlin; 1972.
21713,4268.0,,,21714.0,http://www.srcinc.com/what-we-do/product.aspx?id=133,229.5,nalidixic acid,O=C(O)C2=CN(CC)c1nc(C)ccc1C2=O,PHYSPROP
2457,15636.0,,,2458.0,http://www.alfa.com/en/GP100W.pgm?DSSTK=B24428,30.0,2-chlorobenzotrichloride,c1ccc(c(c1)C(Cl)(Cl)Cl)Cl,Alfa Aesar
8799,59229.0,,,8800.0,http://dx.doi.org/10.1021/ci020280x,82.0,cloranolol,CC(C)(C)NCC(O)COc1cc(Cl)ccc1Cl,Bergstrom C. A. S.; Norinder U.; Luthman K.; Artursson P. Molecular Descriptors Influencing Melting Point and Their Role in Classification of Solid Drugs. J. Chem. Inf. Comput. Sci.; (Article); 2003; 43(4); 1177-1246
6685,7610.0,,,6686.0,http://www.alfa.com/en/GP100W.pgm?DSSTK=A12482,120.0,cyanoacetamide,C(C#N)C(=O)N,Alfa Aesar
24361,82239.0,,,24362.0,http://www.srcinc.com/what-we-do/product.aspx?id=133,176.0,alfadolone acetate,CC(=O)OCC(=O)C3CCC2C1CCC4CC(O)CCC4(C)C1C(=O)CC23C,PHYSPROP
25169,482968.0,,,25170.0,http://www.srcinc.com/what-we-do/product.aspx?id=133,123.5,"4h-3,1-benzoxazin-4-one, 2-phenyl",O=C2N=C(Oc1ccccc12)c3ccccc3,PHYSPROP
23477,62741.0,,,23478.0,http://www.srcinc.com/what-we-do/product.aspx?id=133,-35.0,6-2 ftoh,FC(F)(C(F)(F)CCO)C(F)(F)C(F)(F)C(F)(F)C(F)(F)F,PHYSPROP
13263,21106093.0,,,13264.0,http://www.amazon.com/dp/B003XEQTLE,25.0,"2,3-butanediol",CC(O)C(C)O,Aldrich Chemical Company; Aldrich Catalog-Handbook of Fine Chemicals; Milwaukee; WI; 1984.
6719,8909.0,,,6720.0,http://www.alfa.com/en/GP100W.pgm?DSSTK=L15000,12.0,cyclooctane,C1CCCCCCC1,Alfa Aesar
10333,2036492.0,,,10334.0,http://dx.doi.org/10.1021/ci0500132,266.0,"4-chloro-3,6-dioxo-5-[(2-phenylethyl)amino]cyclohexa-1,4-diene-1,2-dicarbonitrile",ClC=1C(=O)C(C#N)=C(C#N)C(=O)C=1NCCc1ccccc1,Karthikeyan M.; Glen R.C.; Bender A. General melting point prediction based on a diverse compound dataset and artificial neural networks. J. Chem. Inf. Model.; 2005; 45(3); 581-1916
17278,8817.0,,,17279.0,http://dx.doi.org/10.1021/ci700307p,254.0,chrysene,c1cc4ccccc4c2ccc3ccccc3c12,Hughes LD; Palmer DS; Nigsch F and Mitchell JBO. 2008 Why are some properties more difficult to predict than others? A study of QSPR models of solubility; melting point and LogP. J. Chem. Inf. Model. 2008. 48 (1). pp 220?426
15850,13487.0,,,15851.0,http://msds.chem.ox.ac.uk/,-61.0,Hexylbenzene,CCCCCCc1ccccc1,academic website
1551,192195.0,,,1552.0,http://www.alfa.com/en/GP100W.pgm?DSSTK=B22102,180.0,"2,4-dinitrophenylacetic acid",c1cc(c(cc1[N+](=O)[O-])[N+](=O)[O-])CC(=O)O,Alfa Aesar
1326,58568.0,,,1327.0,http://www.alfa.com/en/GP100W.pgm?DSSTK=B21954,120.0,"2,3-diphenyl-2-cyclopropen-1-one",c1ccc(cc1)c2c(c2=O)c3ccccc3,Alfa Aesar
6326,8860.0,,,6327.0,http://www.alfa.com/en/GP100W.pgm?DSSTK=L01657,109.0,acridine,c1ccc2c(c1)cc3ccccc3n2,Alfa Aesar
9358,5258468.0,,,9359.0,http://dx.doi.org/10.1021/ci0500132,183.0,"4-{[(1E)-1,3-benzodioxol-5-ylmethylidene]amino}-2-(morpholin-4-ylmethyl)-5-(trifluoromethyl)-2,4-dihydro-3H-1,2,4-triazole-3-thione",S=C1N(N=C(N1N=Cc1ccc2OCOc2c1)C(F)(F)F)CN1CCOCC1,Karthikeyan M.; Glen R.C.; Bender A. General melting point prediction based on a diverse compound dataset and artificial neural networks. J. Chem. Inf. Model.; 2005; 45(3); 581-941
16854,331.0,,,16855.0,http://www.drugbank.ca/drugs/DB00936,158.0,Salicyclic acid,OC(=O)c1ccccc1O,DrugBank
19880,9574.0,,,19881.0,http://www.srcinc.com/what-we-do/product.aspx?id=133,124.0,m-fluorobenzoic acid,OC(=O)c1cc(F)ccc1,PHYSPROP
19061,11849.0,,,19062.0,http://www.srcinc.com/what-we-do/product.aspx?id=133,-124.0,butyl ethyl ether,CCOCCCC,PHYSPROP
24513,86143.0,,,24514.0,http://www.srcinc.com/what-we-do/product.aspx?id=133,122.5,"1,2-ethanediol, 1,2-diphenyl-, (r*,r*)-(?)-",OC(C(O)c1ccccc1)c2ccccc2,PHYSPROP
3233,3014435.0,,,3234.0,http://www.alfa.com/en/GP100W.pgm?DSSTK=A12587,72.0,"3,4,5-trichloropyridine",c1c(c(c(cn1)Cl)Cl)Cl,Alfa Aesar
7136,86410.0,,,7137.0,http://www.alfa.com/en/GP100W.pgm?DSSTK=L04440,163.0,ethyl 5-benzyloxyindole-2-carboxylate,CCOC(=O)c1cc2cc(ccc2[nH]1)OCc3ccccc3,Alfa Aesar
4982,13875219.0,,,4983.0,http://www.alfa.com/en/GP100W.pgm?DSSTK=A15602,41.0,4-chlorophenol,c1cc(ccc1O)Cl,Alfa Aesar
24992,261488.0,,,24993.0,http://www.srcinc.com/what-we-do/product.aspx?id=133,9.7,"pentacosane, 13-undecyl-",CCCCCCCCCCCC(CCCCCCCCCCCC)CCCCCCCCCCCC,PHYSPROP
5575,85489.0,,,5576.0,http://www.alfa.com/en/GP100W.pgm?DSSTK=B25357,18.0,4-tert-butylanisole,CC(C)(C)c1ccc(cc1)OC,Alfa Aesar
24931,217532.0,,,24932.0,http://www.srcinc.com/what-we-do/product.aspx?id=133,93.0,p-methylphenylacetic acid,OC(=O)Cc1ccc(C)cc1,PHYSPROP
11515,2031345.0,,,11516.0,http://dx.doi.org/10.1021/ci0500132,171.0,"(3Z)-3-{[(4-methoxyphenyl)amino]methylidene}-1,7,7-trimethylbicyclo[2.2.1]heptan-2-one",O=C1C(=CNc2ccc(OC)cc2)C2CCC1(C)C2(C)C,Karthikeyan M.; Glen R.C.; Bender A. General melting point prediction based on a diverse compound dataset and artificial neural networks. J. Chem. Inf. Model.; 2005; 45(3); 581-3098
16739,13839416.0,,,16740.0,http://www.drugbank.ca/drugs/DB02210,45.0,"Hexane-1,6-Diol",OCCCCCCO,DrugBank
23094,60466.0,,,23095.0,http://www.srcinc.com/what-we-do/product.aspx?id=133,222.5,"n-sulfanilyl-3,4-xylamide",Nc1ccc(cc1)S(=O)(=O)NC(=O)c2ccc(C)c(C)c2,PHYSPROP
10726,2034556.0,,,10727.0,http://dx.doi.org/10.1021/ci0500132,199.0,"6-amino-4-(2,4-dichlorophenyl)-3-(trifluoromethyl)-2,4-dihydropyrano[2,3-c]pyrazole-5-carbonitrile",Clc1ccc(c(Cl)c1)C1c2c(OC(N)=C1C#N)[nH][nH0]c2C(F)(F)F,Karthikeyan M.; Glen R.C.; Bender A. General melting point prediction based on a diverse compound dataset and artificial neural networks. J. Chem. Inf. Model.; 2005; 45(3); 581-2309
21485,5286.0,,,21486.0,http://www.srcinc.com/what-we-do/product.aspx?id=133,224.0,tirofiban,O=C(O)C(NS(=O)(=O)CCCC)Cc1ccc(cc1)OCCCCC2CCNCC2,PHYSPROP
15798,6897.0,,,15799.0,http://msds.chem.ox.ac.uk/,-34.0,Ethyl benzoate,O=C(OCC)c1ccccc1,academic website
2615,2054878.0,,,2616.0,http://www.alfa.com/en/GP100W.pgm?DSSTK=H26150,205.0,2-fluoro-5-hydroxybenzoic acid,c1cc(c(cc1O)C(=O)O)F,Alfa Aesar
13335,7621.0,,,13336.0,http://www.amazon.com/dp/B002IYRJWI,-84.0,4-methyl-2-pentanone,CC(C)CC(C)=O,American Petroleum Institute. Research Project 44; Selected Values of Properties of Hydrocarbons and Related Compounds. Texas A & M University; College Station; TX; 1973.
22773,48119.0,,,22774.0,http://www.srcinc.com/what-we-do/product.aspx?id=133,115.5,flupirtine,Nc1nc(ccc1NC(=O)OCC)NCc2ccc(F)cc2,PHYSPROP
8288,13865683.0,,,8289.0,http://www.alfa.com/en/GP100W.pgm?DSSTK=L08753,12.0,phthaloyl chloride,c1ccc(c(c1)C(=O)Cl)C(=O)Cl,Alfa Aesar
22851,55185.0,,,22852.0,http://www.srcinc.com/what-we-do/product.aspx?id=133,-135.0,methylchlorosilane,C[SiH2]Cl,PHYSPROP
14320,119922.0,,,14321.0,http://www.amazon.com/dp/B002IYRJWI,23.0,cyclotridecane,C1CCCCCCCCCCCC1,American Petroleum Institute. Research Project 44; Selected Values of Properties of Hydrocarbons and Related Compounds. Texas A & M University; College Station; TX; 1973.
18231,15965.0,,,18232.0,http://www.srcinc.com/what-we-do/product.aspx?id=133,-51.6,propyl benzoate,O=C(OCCC)c1ccccc1,PHYSPROP
17348,32554.0,,,17349.0,http://www.srcinc.com/what-we-do/product.aspx?id=133,-112.0,"1(trans), 2(cis), 3-trimethylcyclopentane",CC1CCC(C)C1C,PHYSPROP
18019,17800.0,,,18020.0,http://www.srcinc.com/what-we-do/product.aspx?id=133,-134.3,"2,3-dimethyl-1-pentene",C=C(C)C(C)CC,PHYSPROP
1936,70751.0,,,1937.0,http://www.alfa.com/en/GP100W.pgm?DSSTK=H32544,143.0,"2-amino-4,5,6,7-tetrahydrobenzo[b]thiophene-3-carbonitrile",C1CCc2c(c(c(s2)N)C#N)C1,Alfa Aesar
5043,257043.0,,,5044.0,http://www.alfa.com/en/GP100W.pgm?DSSTK=B23598,59.0,4-dimethylamino-2-methoxybenzaldehyde,CN(C)c1ccc(c(c1)OC)C=O,Alfa Aesar
24255,77712.0,,,24256.0,http://www.srcinc.com/what-we-do/product.aspx?id=133,125.0,fenbuconazole,Clc3ccc(CCC(Cn1cncn1)(C#N)c2ccccc2)cc3,PHYSPROP
3138,78547.0,,,3139.0,http://www.alfa.com/en/GP100W.pgm?DSSTK=L07934,56.0,3-(4-hydroxyphenyl)propionitrile,c1cc(ccc1CCC#N)O,Alfa Aesar
17437,29102.0,,,17438.0,http://www.srcinc.com/what-we-do/product.aspx?id=133,-130.0,chloroprene,C=C(Cl)C=C,PHYSPROP
3898,21105905.0,,,3899.0,http://www.alfa.com/en/GP100W.pgm?DSSTK=B20318,-77.0,3-ethylpyridine,CCc1cccnc1,Alfa Aesar
14863,12220.0,,,14864.0,http://msds.chem.ox.ac.uk/,-69.0,1-(Pentyloxy)pentane,CCCCCOCCCCC,academic website
8399,89644.0,,,8400.0,http://www.alfa.com/en/GP100W.pgm?DSSTK=L00577,168.0,"S,S-dimethyl-N-(p-toluenesulfonyl)sulfoximine",Cc1ccc(cc1)S(=O)(=O)N=S(=O)(C)C,Alfa Aesar
25797,4642435.0,,,25798.0,http://www.srcinc.com/what-we-do/product.aspx?id=133,260.2,estrone,Oc3cc4CCC1[C@H](CCC2(C)C(=O)CC[C@@H]12)c4cc3,PHYSPROP
2640,2019002.0,,,2641.0,http://www.alfa.com/en/GP100W.pgm?DSSTK=H26060,91.0,2-fluoro-6-methoxybenzoic acid,COc1cccc(c1C(=O)O)F,Alfa Aesar
24067,71315.0,,,24068.0,http://www.srcinc.com/what-we-do/product.aspx?id=133,-68.0,"butane, 2,3-dichloro-1,1,1,2,3,4,4,4-octafluoro-",FC(Cl)(C(Cl)(F)C(F)(F)F)C(F)(F)F,PHYSPROP
1927,14608.0,,,1928.0,http://www.alfa.com/en/GP100W.pgm?DSSTK=A10224,31.0,2-amino-3-methylpyridine,Cc1cccnc1N,Alfa Aesar
19535,10737.0,,,19536.0,http://www.srcinc.com/what-we-do/product.aspx?id=133,-115.2,"3,3-dimethyl-1-butene",C=CC(C)(C)C,PHYSPROP
22134,2265.0,,,22135.0,http://www.srcinc.com/what-we-do/product.aspx?id=133,188.0,bergapten(e),COc1c3ccoc3cc2OC(=O)C=Cc12,PHYSPROP
3292,7327.0,,,3293.0,http://www.alfa.com/en/GP100W.pgm?DSSTK=A17672,-3.0,"3,4-dichlorobenzyl chloride",c1cc(c(cc1CCl)Cl)Cl,Alfa Aesar
12786,65065.0,,,12787.0,http://dx.doi.org/10.1021/ci0500132,78.0,"N-Ethyl-1,2-benzothiazol-3-amine",s1[nH0]c(NCC)c2ccccc12,Karthikeyan M.; Glen R.C.; Bender A. General melting point prediction based on a diverse compound dataset and artificial neural networks. J. Chem. Inf. Model.; 2005; 45(3); 581-4369
16311,9524.0,,,16312.0,http://www.drugbank.ca/drugs/DB00946,179.5,Phenprocoumon,O=C1c3ccccc3OC(O)=C1C(CC)c2ccccc2,DrugBank
7902,4268.0,,,7903.0,http://www.alfa.com/en/GP100W.pgm?DSSTK=B25096,229.0,nalidixic acid,CCn1cc(c(=O)c2c1nc(cc2)C)C(=O)O,Alfa Aesar
20082,8733.0,,,20083.0,http://www.srcinc.com/what-we-do/product.aspx?id=133,11.0,propanolamine,NCCCO,PHYSPROP
9313,7855433.0,,,9314.0,http://dx.doi.org/10.1021/ci0500132,138.0,"(1E)-1-(1,2-dihydroacenaphthylen-5-yl)-N-hydroxy-2-phenylethanimine",ON=C(Cc1ccccc1)c1ccc2CCc3cccc1c32,Karthikeyan M.; Glen R.C.; Bender A. General melting point prediction based on a diverse compound dataset and artificial neural networks. J. Chem. Inf. Model.; 2005; 45(3); 581-896
2231,6118.0,,,2232.0,http://www.alfa.com/en/GP100W.pgm?DSSTK=A12944,-89.0,2-bromopropane,CC(C)Br,Alfa Aesar
14241,11362492.0,,,14242.0,http://de.wikipedia.org/wiki/Beilsteins_Handbuch_der_Organischen_Chemie,56.0,ethyl_m-cyanobenzoate,O=C(OCC)c1cccc(c1)C#N,Beilstein F. K.; Beilsteins Handbuch der Organischen Chemie. Springer; Berlin; 1972.