,csid,donotuse,donotusebecause,key,link,mpC,name,smiles,source
13407,5596.0,,,13408.0,http://www.amazon.com/dp/B003XEQTLE,176.0,o-aminophenol,Nc1ccccc1O,Aldrich Chemical Company; Aldrich Catalog-Handbook of Fine Chemicals; Milwaukee; WI; 1984.
23698,65080.0,,,23699.0,http://www.srcinc.com/what-we-do/product.aspx?id=133,84.0,parsalmide,CCCCNC(=O)c1cc(N)ccc1OCC#C,PHYSPROP
26494,13839128.0,,,26495.0,http://www.srcinc.com/what-we-do/product.aspx?id=133,74.8,"2,5-dimethylphenol",Cc1cc(O)c(C)cc1,PHYSPROP
26828,21106528.0,,,26829.0,http://www.srcinc.com/what-we-do/product.aspx?id=133,35.5,"2,3,4,5,6-pentafluoroaniline",Fc1c(F)c(F)c(F)c(N)c1F,PHYSPROP
6161,75205.0,,,6162.0,http://www.alfa.com/en/GP100W.pgm?DSSTK=A14471,144.0,6-methyl-3(2h)-pyridazinone,Cc1ccc(=O)[nH]n1,Alfa Aesar
19328,11276.0,,,19329.0,http://www.srcinc.com/what-we-do/product.aspx?id=133,103.0,"acenaphthylene, 1,2-dihydro-5-nitro-",[O-][N+](=O)c1ccc3CCc2cccc1c23,PHYSPROP
8522,7739.0,,,8523.0,http://www.alfa.com/en/GP100W.pgm?DSSTK=A13941,-38.0,thiophene,c1ccsc1,Alfa Aesar
25777,4527286.0,,,25778.0,http://www.srcinc.com/what-we-do/product.aspx?id=133,359.0,"benzo b thiophen-3(2h)-one, 2-(3-oxobenzo b thie",O=C3c4ccccc4S/C3=C2/Sc1ccccc1C2=O,PHYSPROP
19488,10870.0,,,19489.0,http://www.srcinc.com/what-we-do/product.aspx?id=133,134.0,"3,4-dinitrophenol",O=[N+]([O-])c1cc(O)ccc1[N+]([O-])=O,PHYSPROP
18260,15766.0,,,18261.0,http://www.srcinc.com/what-we-do/product.aspx?id=133,-90.1,"1,3-dimethylcyclohexane (trans)",C[C@@H]1CCC[C@@H](C)C1,PHYSPROP
1503,514753.0,,,1504.0,http://www.alfa.com/en/GP100W.pgm?DSSTK=B20272,154.0,"2',4'-dihydroxy-3'-methylacetophenone",Cc1c(ccc(c1O)C(=O)C)O,Alfa Aesar
4809,589198.0,,,4810.0,http://www.alfa.com/en/GP100W.pgm?DSSTK=L19417,17.0,4-bromoindole,c1cc2c(cc[nH]2)c(c1)Br,Alfa Aesar
6291,9824.0,,,6292.0,http://www.alfa.com/en/GP100W.pgm?DSSTK=A12910,84.0,9-fluorenone,c1ccc2c(c1)-c3ccccc3C2=O,Alfa Aesar
23060,60192.0,,,23061.0,http://www.srcinc.com/what-we-do/product.aspx?id=133,-44.0,alpha-bromostyrene,BrC(=C)c1ccccc1,PHYSPROP
24358,81792.0,,,24359.0,http://www.srcinc.com/what-we-do/product.aspx?id=133,109.5,fenfuram,Cc2occc2C(=O)Nc1ccccc1,PHYSPROP
18052,17429.0,,,18053.0,http://www.srcinc.com/what-we-do/product.aspx?id=133,-6.0,"2,5-dibromothiophene",Brc1ccc(Br)s1,PHYSPROP
22089,2480.0,,,22090.0,http://www.srcinc.com/what-we-do/product.aspx?id=133,31.0,"1,3-bis(2-chloroet)-1-nitrosourea",O=C(NCCCl)N(CCCl)N=O,PHYSPROP
1919,2284275.0,,,1920.0,http://www.alfa.com/en/GP100W.pgm?DSSTK=A19048,47.0,2-amino-3-ethyl-6-methylpyridine,CCc1ccc(nc1N)C,Alfa Aesar
9805,4644750.0,,,9806.0,http://dx.doi.org/10.1021/ci0500132,82.0,"(3Z)-3-(2-nitrobenzylidene)-1,3-dihydro-2H-indol-2-one",O=[N+]([O-])c1ccccc1C=C1c2ccccc2NC1=O,Karthikeyan M.; Glen R.C.; Bender A. General melting point prediction based on a diverse compound dataset and artificial neural networks. J. Chem. Inf. Model.; 2005; 45(3); 581-1388
7779,73876.0,,,7780.0,http://www.alfa.com/en/GP100W.pgm?DSSTK=A15057,197.0,N-(4-chlorophenyl)phthalimide,c1ccc2c(c1)C(=O)N(C2=O)c3ccc(cc3)Cl,Alfa Aesar
4280,631962.0,,,4281.0,http://www.alfa.com/en/GP100W.pgm?DSSTK=H28517,164.0,4-(boc-amino)piperidine,CC(C)(C)OC(=O)NC1CCNCC1,Alfa Aesar
3209,109680.0,,,3210.0,http://www.alfa.com/en/GP100W.pgm?DSSTK=L16740,8.0,"3,3'-difluorobiphenyl",c1cc(cc(c1)F)c2cccc(c2)F,Alfa Aesar
15437,5148.0,,,15438.0,http://msds.chem.ox.ac.uk/,202.0,"4-Amino-N-(1,3-thiazol-2-yl)benzenesulfonamide",O=S(=O)(Nc1nccs1)c2ccc(N)cc2,academic website
7515,1064916.0,,,7516.0,http://www.alfa.com/en/GP100W.pgm?DSSTK=B21518,29.0,"methyl 3,4-dichlorophenylacetate",COC(=O)Cc1ccc(c(c1)Cl)Cl,Alfa Aesar
5980,76088.0,,,5981.0,http://www.alfa.com/en/GP100W.pgm?DSSTK=A12666,34.0,5-methylbenzo[b]thiophene,Cc1ccc2c(c1)ccs2,Alfa Aesar
18669,13487.0,,,18670.0,http://www.srcinc.com/what-we-do/product.aspx?id=133,-61.0,n-hexylbenzene,CCCCCCc1ccccc1,PHYSPROP
15027,9078.0,,,15028.0,http://msds.chem.ox.ac.uk/,-13.0,1-Fluoronaphthalene,Fc2cccc1ccccc12,academic website
18592,13861.0,,,18593.0,http://www.srcinc.com/what-we-do/product.aspx?id=133,34.8,"benzonitrile, 4-fluoro-",N#Cc1ccc(F)cc1,PHYSPROP
15094,4029.0,,,15095.0,http://msds.chem.ox.ac.uk/,160.0,2-(2-Methyl-5-nitro-1H-imidazol-1-yl)ethanol,Cc1ncc([N+]([O-])=O)n1CCO,academic website
18573,14009.0,,,18574.0,http://www.srcinc.com/what-we-do/product.aspx?id=133,87.5,methdilazine,CN1CCC(C1)CN2c4ccccc4Sc3ccccc23,PHYSPROP
11112,2033352.0,,,11113.0,http://dx.doi.org/10.1021/ci0500132,145.0,"methyl 4-(2,5-dihydro-1H-pyrrol-1-yl)-5-methoxypentanoate",O=C(OC)CCC(N1CC=CC1)COC,Karthikeyan M.; Glen R.C.; Bender A. General melting point prediction based on a diverse compound dataset and artificial neural networks. J. Chem. Inf. Model.; 2005; 45(3); 581-2695
26670,13884973.0,,,26671.0,http://www.srcinc.com/what-we-do/product.aspx?id=133,-50.0,"2-methyl-2,4-pentanediol",CC(O)CC(C)(C)O,PHYSPROP
25263,553502.0,,,25264.0,http://www.srcinc.com/what-we-do/product.aspx?id=133,-53.0,"ethene, 1,2-dibromo-, (z)-",BrC=CBr,PHYSPROP
18486,14665.0,,,18487.0,http://www.srcinc.com/what-we-do/product.aspx?id=133,43.5,(+)-fenchol,CC12CCC(C1)C(C)(C)C2O,PHYSPROP
3444,8368084.0,,,3445.0,http://www.alfa.com/en/GP100W.pgm?DSSTK=H26139,123.0,"3,5-difluoro-4-hydroxybenzaldehyde",c1c(cc(c(c1F)O)F)C=O,Alfa Aesar
104,221937.0,,,105.0,http://www.alfa.com/en/GP100W.pgm?DSSTK=L01107,168.0,1-naphthaleneacethydrazide,c1ccc2c(c1)cccc2CC(=O)NN,Alfa Aesar
6667,12668.0,,,6668.0,http://www.alfa.com/en/GP100W.pgm?DSSTK=B24951,166.0,"cis-5-norbornene-endo-2,3-dicarboxylic anhydride",C1C2C=CC1C3C2C(=O)OC3=O,Alfa Aesar
2708,247223.0,,,2709.0,http://www.alfa.com/en/GP100W.pgm?DSSTK=L16188,130.0,2-hydroxy-4-methylpyridine,Cc1ccnc(c1)O,Alfa Aesar
28195,25097.0,,,28196.0,http://www.aapspharmscitech.org/view.asp?art=pt070126,61.0,ipronidazole,[O-][N+](=O)c1cnc(n1C)C(C)C,Sepassi K; Yalkowsky SH; AAPS PharmSciTech; 7(1); E1-E8 (2006)
16179,16295.0,,,16180.0,http://msds.chem.ox.ac.uk/,-115.0,Trimethoxysilane,CO[SiH](OC)OC,academic website
6977,222625.0,,,6978.0,http://www.alfa.com/en/GP100W.pgm?DSSTK=B21101,54.0,diphenylphosphine oxide,c1ccc(cc1)P(=O)c2ccccc2,Alfa Aesar
2392,105125.0,,,2393.0,http://www.alfa.com/en/GP100W.pgm?DSSTK=L17523,59.0,2-chloro-5-nitrobenzoyl chloride,c1cc(c(cc1[N+](=O)[O-])C(=O)Cl)Cl,Alfa Aesar
2396,75176.0,,,2397.0,http://www.alfa.com/en/GP100W.pgm?DSSTK=L10832,43.0,2-chloro-5-nitrotoluene,Cc1cc(ccc1Cl)[N+](=O)[O-],Alfa Aesar
19014,11936.0,,,19015.0,http://www.srcinc.com/what-we-do/product.aspx?id=133,275.0,"4,5,6,7-tetrabromo-1,3-isobenzofurandione",O=C1OC(=O)c2c1c(Br)c(Br)c(Br)c2Br,PHYSPROP
21977,2991.0,,,21978.0,http://www.srcinc.com/what-we-do/product.aspx?id=133,48.5,benzophenone,O=C(c1ccccc1)c2ccccc2,PHYSPROP
13129,8544.0,,,13130.0,http://www.amazon.com/dp/B002IYRJWI,-135.0,cyclopentene,C1C=CCC1,American Petroleum Institute. Research Project 44; Selected Values of Properties of Hydrocarbons and Related Compounds. Texas A & M University; College Station; TX; 1973.
7350,56154.0,,,7351.0,http://www.alfa.com/en/GP100W.pgm?DSSTK=A14692,-80.0,isobutyl chloroformate,CC(C)COC(=O)Cl,Alfa Aesar
24031,70578.0,,,24032.0,http://www.srcinc.com/what-we-do/product.aspx?id=133,-30.1,"1-octanamine, n-methyl-n-octyl-",CN(CCCCCCCC)CCCCCCCC,PHYSPROP
27824,235.0,,,27825.0,http://reaxys.com pending ILL,-56.9,benzaldehyde,c1ccc(cc1)C=O,Reaxys pending ILL
8182,10696.0,,,8183.0,http://www.alfa.com/en/GP100W.pgm?DSSTK=A15240,18.0,octamethylcyclotetrasiloxane,C[Si]1(O[Si](O[Si](O[Si](O1)(C)C)(C)C)(C)C)C,Alfa Aesar
26859,21108245.0,,,26860.0,http://www.srcinc.com/what-we-do/product.aspx?id=133,19.0,"benzoic acid, 2-(methylamino)-, methyl ester",CNc1ccccc1C(=O)OC,PHYSPROP
24149,72594.0,,,24150.0,http://www.srcinc.com/what-we-do/product.aspx?id=133,-51.0,"pentanamide, n,n-dimethyl-",CN(C)C(=O)CCCC,PHYSPROP
26529,13850142.0,,,26530.0,http://www.srcinc.com/what-we-do/product.aspx?id=133,37.5,alpha-terpineol,CC1=CCC(CC1)C(O)(C)C,PHYSPROP
11097,2033486.0,x,salt - AL,11098.0,http://dx.doi.org/10.1021/ci0500132,251.0,2-(dimethylamino)ethyl benzoate hydroiodide,I.O=C(OCCN(C)C)c1ccccc1,Karthikeyan M.; Glen R.C.; Bender A. General melting point prediction based on a diverse compound dataset and artificial neural networks. J. Chem. Inf. Model.; 2005; 45(3); 581-2680
19379,11153.0,,,19380.0,http://www.srcinc.com/what-we-do/product.aspx?id=133,-133.0,chlorofluoromethane,ClCF,PHYSPROP
21785,3820.0,,,21786.0,http://www.srcinc.com/what-we-do/product.aspx?id=133,135.0,loratadine,Clc3cc4CCc1cccnc1C(=C2/CCN(CC2)C(=O)OCC)/c4cc3,PHYSPROP
16571,2631.0,,,16572.0,http://www.drugbank.ca/drugs/DB00310,241.0,Chlorthalidone,NS(=O)(=O)c1cc(ccc1Cl)C3(O)NC(=O)c2ccccc23,DrugBank
21178,6314.0,,,21179.0,http://www.srcinc.com/what-we-do/product.aspx?id=133,-81.0,methacrolein,C=C(C)C=O,PHYSPROP
14424,27535.0,,,14425.0,http://www.amazon.com/dp/B003XEQTLE,-1.0,o-bromophenylacetonitrile,Brc1ccccc1CC#N,Aldrich Chemical Company; Aldrich Catalog-Handbook of Fine Chemicals; Milwaukee; WI; 1984.
2601,2063379.0,,,2602.0,http://www.alfa.com/en/GP100W.pgm?DSSTK=L13653,56.0,2-fluoro-4'-methoxybenzophenone,COc1ccc(cc1)C(=O)c2ccccc2F,Alfa Aesar
18723,13186.0,,,18724.0,http://www.srcinc.com/what-we-do/product.aspx?id=133,61.0,dinobuton,CC(CC)c1cc(cc([N+]([O-])=O)c1OC(=O)OC(C)C)[N+]([O-])=O,PHYSPROP
1626,511697.0,,,1627.0,http://www.alfa.com/en/GP100W.pgm?DSSTK=L10212,111.0,"2,5-difluoromandelic acid",c1cc(c(cc1F)C(C(=O)O)O)F,Alfa Aesar
23438,62618.0,,,23439.0,http://www.srcinc.com/what-we-do/product.aspx?id=133,12.0,"1,4-butanediol, diacetate",O=C(C)OCCCCOC(C)=O,PHYSPROP
22381,763.0,,,22382.0,http://www.srcinc.com/what-we-do/product.aspx?id=133,-0.43,hydrogen peroxide,OO,PHYSPROP
21439,5530.0,,,21440.0,http://www.srcinc.com/what-we-do/product.aspx?id=133,196.0,zolpidem,CN(C)C(=O)Cc1c(nc2ccc(C)cn12)c3ccc(C)cc3,PHYSPROP
12214,1267607.0,,,12215.0,http://dx.doi.org/10.1021/ci0500132,193.0,4-(4-Chloro-benzylidene)-2-phenyl-4H-oxazol-5-one,Clc1ccc(cc1)C=C1N=C(OC1=O)c1ccccc1,Karthikeyan M.; Glen R.C.; Bender A. General melting point prediction based on a diverse compound dataset and artificial neural networks. J. Chem. Inf. Model.; 2005; 45(3); 581-3797
4609,2041764.0,,,4610.0,http://www.alfa.com/en/GP100W.pgm?DSSTK=H50028,110.0,4-aminopyridine-3-carboxaldehyde,c1cncc(c1N)C=O,Alfa Aesar
26948,21169498.0,,,26949.0,http://www.srcinc.com/what-we-do/product.aspx?id=133,-9.0,"pentanoic acid, 4-methyl-3-oxo-, ethyl ester",O=C(CC(=O)OCC)C(C)C,PHYSPROP
5633,504922.0,,,5634.0,http://www.alfa.com/en/GP100W.pgm?DSSTK=L11713,104.0,5-(phenylsulfonyl)thiophene-2-sulfonyl chloride,c1ccc(cc1)S(=O)(=O)c2ccc(s2)S(=O)(=O)Cl,Alfa Aesar
18148,16406.0,,,18149.0,http://www.srcinc.com/what-we-do/product.aspx?id=133,157.5,"barbituric acid,5(2hopr)5-allyl",O=C1NC(=O)NC(=O)C1(CC(C)O)CC=C,PHYSPROP
25367,816005.0,,,25368.0,http://www.srcinc.com/what-we-do/product.aspx?id=133,245.0,5-chloro-naphthalene-1-carboxylic acid,O=C(O)c2cccc1c2cccc1Cl,PHYSPROP
26833,21106533.0,,,26834.0,http://www.srcinc.com/what-we-do/product.aspx?id=133,152.5,pyromellitic dianhydride,O=C2OC(=O)c1cc3c(cc12)C(=O)OC3=O,PHYSPROP
23819,67229.0,,,23820.0,http://www.srcinc.com/what-we-do/product.aspx?id=133,116.0,p-bromophenylacetic acid,Brc1ccc(CC(=O)O)cc1,PHYSPROP
28552,5145.0,,,28553.0,http://dx.doi.org/10.1080/10629360701430124,192.0,sulfapyridine,O=S(=O)(Nc1ncccc1)c2ccc(N)cc2,RAEVSKY OA; PERLOVICH GL and SCHAPER K-J. Physicochemical properties/descriptors governing the solubility and partitioning of chemicals in water-solvent-gas systems. Part 2. Solubility in 1-octanol. SAR and QSAR in Environmental Research Vol. 18 Nos. 5–6 July–September 2007 543–578
26927,21159680.0,,,26928.0,http://www.srcinc.com/what-we-do/product.aspx?id=133,-12.3,"benzene, 1-chloro-4-(1-methylethyl)-",CC(C)c1ccc(Cl)cc1,PHYSPROP
21838,3552.0,,,21839.0,http://www.srcinc.com/what-we-do/product.aspx?id=133,263.0,dexamethasone-21-acetate,CC(=O)OCC(=O)C4(O)C(C)CC3C2CCC1=CC(=O)C=CC1(C)C2(F)C(O)CC34C,PHYSPROP
19530,10759.0,,,19531.0,http://www.srcinc.com/what-we-do/product.aspx?id=133,-126.1,"3,3-dimethyl hexane",CC(C)(CC)CCC,PHYSPROP
14609,10677540.0,,,14610.0,http://www.amazon.com/dp/B003XEQTLE,134.0,benzyl_sulfoxide,O=SCc1ccccc1,Aldrich Chemical Company; Aldrich Catalog-Handbook of Fine Chemicals; Milwaukee; WI; 1984.
728,2018914.0,,,729.0,http://www.alfa.com/en/GP100W.pgm?DSSTK=L20211,85.0,"1,2,3-thiadiazole-4-carboxaldehyde",c1c(nns1)C=O,Alfa Aesar
20633,7335.0,x,too high - possibly salt JCB,20634.0,http://www.srcinc.com/what-we-do/product.aspx?id=133,94.0,triallylamine,C=CCN(CC=C)CC=C,PHYSPROP
2466,4643134.0,,,2467.0,http://www.alfa.com/en/GP100W.pgm?DSSTK=L10521,38.0,2-chlorocinnamoyl chloride,c1ccc(c(c1)/C=C/C(=O)Cl)Cl,Alfa Aesar
1378,644241.0,,,1379.0,http://www.alfa.com/en/GP100W.pgm?DSSTK=L15525,57.0,"2,4,6-trifluorobenzonitrile",c1c(cc(c(c1F)C#N)F)F,Alfa Aesar
5872,409222.0,,,5873.0,http://www.alfa.com/en/GP100W.pgm?DSSTK=H32596,155.0,5-chloropyrazine-2-carboxylic acid,c1c(ncc(n1)Cl)C(=O)O,Alfa Aesar
9334,5680415.0,,,9335.0,http://dx.doi.org/10.1021/ci0500132,132.0,4-[5-Bromo-3-(5-methyl-furan-2-yl)-benzofuran-2-yl]-butan-2-one oxime,Brc1ccc2oc(CCC(=NO)C)c(c2c1)c1oc(C)cc1,Karthikeyan M.; Glen R.C.; Bender A. General melting point prediction based on a diverse compound dataset and artificial neural networks. J. Chem. Inf. Model.; 2005; 45(3); 581-917
23435,62604.0,,,23436.0,http://www.srcinc.com/what-we-do/product.aspx?id=133,97.0,2-methyl-4-nitrobutane,CC(C)CC[N+]([O-])=O,PHYSPROP
9178,10483036.0,,,9179.0,http://dx.doi.org/10.1021/ci0500132,163.0,2-methyl-3-(3-methylphenyl)but-2-enoic acid,O=C(O)C(C)=C(C)c1cccc(C)c1,Karthikeyan M.; Glen R.C.; Bender A. General melting point prediction based on a diverse compound dataset and artificial neural networks. J. Chem. Inf. Model.; 2005; 45(3); 581-761
1377,453910.0,,,1378.0,http://www.alfa.com/en/GP100W.pgm?DSSTK=A19758,141.0,"2,4,6-trifluorobenzoic acid",c1c(cc(c(c1F)C(=O)O)F)F,Alfa Aesar
9704,4645369.0,,,9705.0,http://dx.doi.org/10.1021/ci0500132,212.0,"7-amino-5-(4-methoxyphenyl)-2-(trifluoromethyl)-1,5-dihydro[1,2,4]triazolo[1,5-a]pyrimidine-6-carbonitrile",FC(F)(F)c1[nH0][nH0]2c([nH0]1)NC(c1ccc(OC)cc1)C(C#N)=C2N,Karthikeyan M.; Glen R.C.; Bender A. General melting point prediction based on a diverse compound dataset and artificial neural networks. J. Chem. Inf. Model.; 2005; 45(3); 581-1287
8243,970.0,,,8244.0,http://www.alfa.com/en/GP100W.pgm?DSSTK=L01921,99.0,phenanthrene,c1ccc2c(c1)ccc3c2cccc3,Alfa Aesar
27391,4510679.0,,,27392.0,,128.0,"(2E)-3-Benzo[1,3]dioxol-5-yl-1-phenyl-2-propen-1-one",O1C2=C(OC1)C=C(C=C2)\C=C\C(=O)C3=CC=CC=C3,Annales de Chimie (Cachan; France
15606,8804.0,,,15607.0,http://msds.chem.ox.ac.uk/,216.0,Benzo[k]fluoranthene,c3c5c1cccc2cccc(c12)c5cc4ccccc34,academic website
24624,96476.0,,,24625.0,http://www.srcinc.com/what-we-do/product.aspx?id=133,14.5,3-phenyl-piperidine,c1cc(ccc1)C2CCCNC2,PHYSPROP
14061,27492.0,,,14062.0,http://www.amazon.com/dp/B003XEQTLE,5.0,"2,5-dichlorotoluene",Clc1ccc(Cl)c(C)c1,Aldrich Chemical Company; Aldrich Catalog-Handbook of Fine Chemicals; Milwaukee; WI; 1984.
2055,7690.0,,,2056.0,http://www.alfa.com/en/GP100W.pgm?DSSTK=B24594,125.0,2-aminopyrimidine,c1cnc(nc1)N,Alfa Aesar
20397,7830.0,,,20398.0,http://www.srcinc.com/what-we-do/product.aspx?id=133,33.0,ethyl stearate,O=C(CCCCCCCCCCCCCCCCC)OCC,PHYSPROP
17706,22730.0,,,17707.0,http://www.srcinc.com/what-we-do/product.aspx?id=133,19.0,"quinoline, 5-methyl-",Cc1cccc2ncccc12,PHYSPROP
7535,10255335.0,,,7536.0,http://www.alfa.com/en/GP100W.pgm?DSSTK=B25699,135.0,methyl 3-amino-4-iodobenzoate,COC(=O)c1ccc(c(c1)N)I,Alfa Aesar
24407,82854.0,,,24408.0,http://www.srcinc.com/what-we-do/product.aspx?id=133,194.0,ethametsulfuron-methyl,CCOc2nc(nc(NC(=O)NS(=O)(=O)c1ccccc1C(=O)OC)n2)NC,PHYSPROP
4354,63210.0,,,4355.0,http://www.alfa.com/en/GP100W.pgm?DSSTK=B25243,180.0,4-(trifluoromethyl)benzenesulfonamide,c1cc(ccc1C(F)(F)F)S(=O)(=O)N,Alfa Aesar
28451,4617.0,,,28452.0,http://dx.doi.org/10.1016/j.chemosphere.2013.10.095,107.0,Phenylbutazone,CCCCC1C(=O)N(N(C1=O)C2=CC=CC=C2)C3=CC=CC=C3,Abraham M.H. and Acree Jr. W.E. The solubility of liquid and solid compounds in dry octan-1-ol. Chemosphere (2013)
8178,62217.0,,,8179.0,http://www.alfa.com/en/GP100W.pgm?DSSTK=A12899,224.0,o-cresolphthalein,Cc1cc(ccc1O)C2(c3ccccc3C(=O)O2)c4ccc(c(c4)C)O,Alfa Aesar
13833,60136.0,,,13834.0,http://www.amazon.com/dp/B003XEQTLE,31.0,2-chloro-5-methylaniline,Cc1ccc(Cl)c(N)c1,Aldrich Chemical Company; Aldrich Catalog-Handbook of Fine Chemicals; Milwaukee; WI; 1984.
5421,12067.0,,,5422.0,http://www.alfa.com/en/GP100W.pgm?DSSTK=A15405,-35.0,4-methylvaleric acid,CC(C)CCC(=O)O,Alfa Aesar
5611,5373885.0,,,5612.0,http://www.alfa.com/en/GP100W.pgm?DSSTK=L17736,207.0,"5-(3,5-dichlorophenyl)-1h-tetrazole",c1c(cc(cc1Cl)Cl)c2[nH]nnn2,Alfa Aesar
21888,3300.0,,,21889.0,http://www.srcinc.com/what-we-do/product.aspx?id=133,169.0,fosfosal,OP(=O)(O)Oc1ccccc1C(=O)O,PHYSPROP
27122,8163.0,,,27123.0,http://scripts.iucr.org/cgi-bin/paper?ci6235,60.85,3-Nitrobenzenesulfonyl chloride,O=S(Cl)(=O)c1cc([N+]([O-])=O)ccc1,IUCr
10347,2036403.0,,,10348.0,http://dx.doi.org/10.1021/ci0500132,61.0,"methyl 4-(1-methylcyclohepta-2,4,6-trien-1-yl)benzoate",O=C(OC)c1ccc(cc1)C1(C)C=CC=CC=C1,Karthikeyan M.; Glen R.C.; Bender A. General melting point prediction based on a diverse compound dataset and artificial neural networks. J. Chem. Inf. Model.; 2005; 45(3); 581-1930
25492,2635909.0,,,25493.0,http://www.srcinc.com/what-we-do/product.aspx?id=133,106.7,"quinoline, 5,7-dichloro-4-(4-fluorophenoxy)-",Fc1ccc(cc1)Oc2ccnc3cc(Cl)cc(Cl)c23,PHYSPROP
10974,2033835.0,,,10975.0,http://dx.doi.org/10.1021/ci0500132,76.0,"3-nitrobicyclo[4.2.0]octa-1,3,5-trien-7-one",O=[N+]([O-])c1ccc2c(c1)CC2=O,Karthikeyan M.; Glen R.C.; Bender A. General melting point prediction based on a diverse compound dataset and artificial neural networks. J. Chem. Inf. Model.; 2005; 45(3); 581-2557
22131,2278.0,,,22132.0,http://www.srcinc.com/what-we-do/product.aspx?id=133,196.0,bethanidine,CN=C(NCc1ccccc1)NC,PHYSPROP
25499,2858750.0,,,25500.0,http://www.srcinc.com/what-we-do/product.aspx?id=133,145.0,ethoxysulfuron,O=C(Nc1nc(cc(OC)n1)OC)NS(=O)(=O)Oc2ccccc2OCC,PHYSPROP
4392,4946143.0,,,4393.0,http://www.alfa.com/en/GP100W.pgm?DSSTK=L09188,198.0,"4,4'-bis(2,5-dimethylstyryl)biphenyl",Cc1cc(c(cc1)C)/C=C/c2ccc(cc2)c3ccc(cc3)/C=C/c4c(ccc(c4)C)C,Alfa Aesar
7969,69265.0,,,7970.0,http://www.alfa.com/en/GP100W.pgm?DSSTK=B22522,75.0,N-boc-beta-alanine,CC(C)(C)OC(=O)NCCC(=O)O,Alfa Aesar
24615,94563.0,,,24616.0,http://www.srcinc.com/what-we-do/product.aspx?id=133,3.81,deuterium oxide,[3H]O[3H],PHYSPROP
26852,21106581.0,,,26853.0,http://www.srcinc.com/what-we-do/product.aspx?id=133,81.8,p-nitroacetophenone,O=[N+]([O-])c1ccc(cc1)C(C)=O,PHYSPROP
9431,4827998.0,,,9432.0,http://dx.doi.org/10.1021/ci0500132,215.0,(2E)-[(4-chlorophenyl)hydrazono](1-methyl-1H-benzimidazol-2-yl)ethanenitrile,Clc1ccc(NN=C(C#N)c2[nH0]c3ccccc3[nH0]2C)cc1,Karthikeyan M.; Glen R.C.; Bender A. General melting point prediction based on a diverse compound dataset and artificial neural networks. J. Chem. Inf. Model.; 2005; 45(3); 581-1014
22035,2790.0,,,22036.0,http://www.srcinc.com/what-we-do/product.aspx?id=133,56.0,cyclandelate,O=C(OC1CC(C)CC(C)(C)C1)C(O)c2ccccc2,PHYSPROP
9949,4525030.0,,,9950.0,http://dx.doi.org/10.1021/ci0500132,118.0,"benzaldehyde, 4-bromo-, oxime",Brc1ccc(cc1)C=NO,Karthikeyan M.; Glen R.C.; Bender A. General melting point prediction based on a diverse compound dataset and artificial neural networks. J. Chem. Inf. Model.; 2005; 45(3); 581-1532
9247,8187904.0,,,9248.0,http://dx.doi.org/10.1021/ci0500132,152.0,"(3aR,7aS)-1,3,3a,7a-tetrahydro-2-benzothiophene 2,2-dioxide",[S+2]1([O-])([O-])Cc2ccccc2C1,Karthikeyan M.; Glen R.C.; Bender A. General melting point prediction based on a diverse compound dataset and artificial neural networks. J. Chem. Inf. Model.; 2005; 45(3); 581-830