,csid,donotuse,donotusebecause,key,link,mpC,name,smiles,source
11785,2030443.0,,,11786.0,http://dx.doi.org/10.1021/ci0500132,152.0,3-(4-nitrophenyl)-2-phenylpropanoic acid,O=[N+]([O-])c1ccc(cc1)CC(c1ccccc1)C(=O)O,Karthikeyan M.; Glen R.C.; Bender A. General melting point prediction based on a diverse compound dataset and artificial neural networks. J. Chem. Inf. Model.; 2005; 45(3); 581-3368
10694,2034653.0,,,10695.0,http://dx.doi.org/10.1021/ci0500132,176.0,"3-(naphthalen-2-ylcarbonyl)-5-(2-nitrophenyl)-3aH-pyrrolo[3,4-d]isoxazole-4,6(5H,6aH)-dione",O=[N+]([O-])c1ccccc1N1C(=O)C2ON=C(C(=O)c3ccc4ccccc4c3)C2C1=O,Karthikeyan M.; Glen R.C.; Bender A. General melting point prediction based on a diverse compound dataset and artificial neural networks. J. Chem. Inf. Model.; 2005; 45(3); 581-2277
1094,119957.0,,,1095.0,http://www.alfa.com/en/GP100W.pgm?DSSTK=L16560,69.0,"2,2,3,3,4,4,5,5-octafluoro-1,6-hexanediol",C(C(C(C(C(CO)(F)F)(F)F)(F)F)(F)F)O,Alfa Aesar
25363,717112.0,,,25364.0,http://www.srcinc.com/what-we-do/product.aspx?id=133,77.5,thioacetanilide,S=C(C)Nc1ccccc1,PHYSPROP
24382,82768.0,,,24383.0,http://www.srcinc.com/what-we-do/product.aspx?id=133,112.0,pyroquilon,O=C1CCc2cccc3CCN1c23,PHYSPROP
26087,10440313.0,,,26088.0,http://www.srcinc.com/what-we-do/product.aspx?id=133,134.5,"benzenesulfonamide, 4-[(4-hydroxybutyl)sulfonyl]",O=S(N)(=O)c1ccc(cc1)S(=O)(=O)CCCCO,PHYSPROP
9879,4644550.0,,,9880.0,http://dx.doi.org/10.1021/ci0500132,101.0,"tetraethyl 2,2'-[benzene-1,3-diyldi(E)ethene-2,1-diyl]dipropanedioate",O=C(OCC)C(C=Cc1cccc(c1)C=CC(C(=O)OCC)C(=O)OCC)C(=O)OCC,Karthikeyan M.; Glen R.C.; Bender A. General melting point prediction based on a diverse compound dataset and artificial neural networks. J. Chem. Inf. Model.; 2005; 45(3); 581-1462
20824,6985.0,,,20825.0,http://www.srcinc.com/what-we-do/product.aspx?id=133,26.0,3-chloro-p-toluidine,Nc1cc(Cl)c(C)cc1,PHYSPROP
4727,454503.0,,,4728.0,http://www.alfa.com/en/GP100W.pgm?DSSTK=A14924,40.0,4-bromo-2-fluorobiphenyl,c1ccc(cc1)c2ccc(cc2F)Br,Alfa Aesar
15111,7970.0,,,15112.0,http://msds.chem.ox.ac.uk/,78.5,"2,2,2-Trichloro-1,1-bis(4-chlorophenyl)ethanol",OC(c1ccc(Cl)cc1)(c2ccc(Cl)cc2)C(Cl)(Cl)Cl,academic website
3665,24589202.0,,,3666.0,http://www.alfa.com/en/GP100W.pgm?DSSTK=H32764,34.0,"3-bromo-2,4-dimethyl-5-phenylthiophene",Cc1c(c(sc1c2ccccc2)C)Br,Alfa Aesar
15451,6993.0,,,15452.0,http://msds.chem.ox.ac.uk/,68.5,"4-Chlorobenzene-1,2-diamine",Nc1cc(Cl)ccc1N,academic website
25649,4481812.0,,,25650.0,http://www.srcinc.com/what-we-do/product.aspx?id=133,-29.5,"butanal, oxime",CCCC=NO,PHYSPROP
20742,7143.0,,,20743.0,http://www.srcinc.com/what-we-do/product.aspx?id=133,86.0,"phenol, 3-(dimethylamino)-",CN(C)c1cccc(O)c1,PHYSPROP
23532,63069.0,,,23533.0,http://www.srcinc.com/what-we-do/product.aspx?id=133,41.0,"1,3-dioxane, 2-phenyl-",c1cc(ccc1)C2OCCCO2,PHYSPROP
26513,13844817.0,,,26514.0,http://www.srcinc.com/what-we-do/product.aspx?id=133,6.1,parathion,S=P(Oc1ccc(cc1)[N+]([O-])=O)(OCC)OCC,PHYSPROP
28221,10972.0,,,28222.0,http://www.aapspharmscitech.org/view.asp?art=pt070126,157.0,m-bromobenzoic acid,O=C(O)c1cc(Br)ccc1,Sepassi K; Yalkowsky SH; AAPS PharmSciTech; 7(1); E1-E8 (2006)
19222,11492.0,,,19223.0,http://www.srcinc.com/what-we-do/product.aspx?id=133,24.0,"benzothiazole, 2-chloro-",Clc1nc2ccccc2s1,PHYSPROP
3178,7097.0,,,3179.0,http://www.alfa.com/en/GP100W.pgm?DSSTK=A15910,6.0,3-(trifluoromethyl)aniline,c1cc(cc(c1)N)C(F)(F)F,Alfa Aesar
4950,13869339.0,,,4951.0,http://www.alfa.com/en/GP100W.pgm?DSSTK=A12879,70.0,4-chloroaniline,c1cc(ccc1N)Cl,Alfa Aesar
2404,2054074.0,,,2405.0,http://www.alfa.com/en/GP100W.pgm?DSSTK=B23020,152.0,2-chloro-6-fluoro-3-methylbenzamide,Cc1ccc(c(c1Cl)C(=O)N)F,Alfa Aesar
11808,2030381.0,,,11809.0,http://dx.doi.org/10.1021/ci0500132,246.0,"7-oxido-5-oxo-2,6-diphenyl-1,5-dihydropyrrolo[3,2-f]indol-3-yl acetate",O=C1c2cc3c([nH]c(c4ccccc4)c3OC(=O)C)cc2[N+]([O-])=C1c1ccccc1,Karthikeyan M.; Glen R.C.; Bender A. General melting point prediction based on a diverse compound dataset and artificial neural networks. J. Chem. Inf. Model.; 2005; 45(3); 581-3391
17253,4963.0,,,17254.0,http://dx.doi.org/10.1021/ci700307p,140.0,salicylamide,O=C(N)c1ccccc1O,Hughes LD; Palmer DS; Nigsch F and Mitchell JBO. 2008 Why are some properties more difficult to predict than others? A study of QSPR models of solubility; melting point and LogP. J. Chem. Inf. Model. 2008. 48 (1). pp 220?401
3802,16125.0,,,3803.0,http://www.alfa.com/en/GP100W.pgm?DSSTK=A17515,130.0,3-chloro-4-hydroxybenzaldehyde,c1cc(c(cc1C=O)Cl)O,Alfa Aesar
5685,554550.0,,,5686.0,http://www.alfa.com/en/GP100W.pgm?DSSTK=H27358,171.0,5-amino-1-(4-chlorophenyl)-1h-pyrazole-4-carbonitrile,c1cc(ccc1n2c(c(cn2)C#N)N)Cl,Alfa Aesar
26024,10438770.0,,,26025.0,http://www.srcinc.com/what-we-do/product.aspx?id=133,165.0,"4h-thieno[2,3-b]thiopyran-2-sulfonamide, 5,6-dih",NS(=O)(=O)c1cc2C(O)CCS(=O)c2s1,PHYSPROP
27007,21427655.0,,,27008.0,http://www.srcinc.com/what-we-do/product.aspx?id=133,116.0,"1,1'-azobis(cyclohexanecarbonitrile)",N#CC2(/N=NC1(CCCCC1)C#N)CCCCC2,PHYSPROP
1370,21106172.0,,,1371.0,http://www.alfa.com/en/GP100W.pgm?DSSTK=A11681,66.0,"2,4,6-trichlorophenol",c1c(cc(c(c1Cl)O)Cl)Cl,Alfa Aesar
9045,10484595.0,,,9046.0,http://dx.doi.org/10.1021/ci0500132,185.0,"4-imino-1-methyl-1,4-dihydro-5H-pyrazolo[3,4-d]pyrimidin-5-amine",N=C1N(N)C=Nc2[nH0]([nH0]cc21)C,Karthikeyan M.; Glen R.C.; Bender A. General melting point prediction based on a diverse compound dataset and artificial neural networks. J. Chem. Inf. Model.; 2005; 45(3); 581-626
11158,2032859.0,,,11159.0,http://dx.doi.org/10.1021/ci0500132,181.0,"N,N-diethyl-6-methyl-2-oxo-4-phenyl-1,2,3,4-tetrahydropyrimidine-5-carboxamide",O=C1NC(C)=C(C(=O)N(CC)CC)C(N1)c1ccccc1,Karthikeyan M.; Glen R.C.; Bender A. General melting point prediction based on a diverse compound dataset and artificial neural networks. J. Chem. Inf. Model.; 2005; 45(3); 581-2741
7347,19066.0,,,7348.0,http://www.alfa.com/en/GP100W.pgm?DSSTK=L17587,76.0,isobutyl 4-hydroxybenzoate,CC(C)COC(=O)c1ccc(cc1)O,Alfa Aesar
20933,6792.0,,,20934.0,http://www.srcinc.com/what-we-do/product.aspx?id=133,-22.0,6-methylquinoline,Cc1ccc2ncccc2c1,PHYSPROP
18048,17442.0,,,18049.0,http://www.srcinc.com/what-we-do/product.aspx?id=133,131.0,phenbutamide,O=S(=O)(NC(=O)NCCCC)c1ccccc1,PHYSPROP
21965,3058.0,,,21966.0,http://www.srcinc.com/what-we-do/product.aspx?id=133,128.0,dromostanolone propionate,CCC(=O)OC3CCC2C4CCC1CC(=O)C(C)CC1(C)C4CCC23C,PHYSPROP
15884,10704.0,x,metal,15885.0,http://msds.chem.ox.ac.uk/,89.0,Magnesium dioctadecanoate,O=C(CCCCCCCCCCCCCCCCC)O[Mg]OC(=O)CCCCCCCCCCCCCCCCC,academic website
7915,2079058.0,,,7916.0,http://www.alfa.com/en/GP100W.pgm?DSSTK=H26324,151.0,naphthalene-2-thiocarboxamide,c1ccc2cc(ccc2c1)C(=S)N,Alfa Aesar
23988,69703.0,,,23989.0,http://www.srcinc.com/what-we-do/product.aspx?id=133,105.0,"benzenemethanethiol, alpha,alpha-diphenyl-",SC(c1ccccc1)(c2ccccc2)c3ccccc3,PHYSPROP
1564,13365.0,,,1565.0,http://www.alfa.com/en/GP100W.pgm?DSSTK=B20961,311.0,"2,5-bis(4-nitrophenyl)-1,3,4-oxadiazole",c1cc(ccc1c2nnc(o2)c3ccc(cc3)[N+](=O)[O-])[N+](=O)[O-],Alfa Aesar
17782,21141.0,,,17783.0,http://www.srcinc.com/what-we-do/product.aspx?id=133,35.0,chlordimeform,Clc1cc(C)c(/N=C/N(C)C)cc1,PHYSPROP
4747,608011.0,,,4748.0,http://www.alfa.com/en/GP100W.pgm?DSSTK=A19939,118.0,4'-bromo-3'-(trifluoromethyl)acetanilide,CC(=O)Nc1ccc(c(c1)C(F)(F)F)Br,Alfa Aesar
520,73658.0,,,521.0,http://www.alfa.com/en/GP100W.pgm?DSSTK=L12508,14.0,"1,4-bis(3-aminopropyl)piperazine",C1CN(CCN1CCCN)CCCN,Alfa Aesar
14518,60848.0,,,14519.0,http://www.amazon.com/dp/B002IYRJWI,62.0,cyclopentadecane,C1CCCCCCCCCCCCCC1,American Petroleum Institute. Research Project 44; Selected Values of Properties of Hydrocarbons and Related Compounds. Texas A & M University; College Station; TX; 1973.
20025,8908.0,,,20026.0,http://www.srcinc.com/what-we-do/product.aspx?id=133,-8.0,cycloheptane,C1CCCCCC1,PHYSPROP
12807,62754.0,,,12808.0,http://dx.doi.org/10.1021/ci0500132,271.0,Acefylline,O=C1N(C)c2[nH0]c[nH0](CC(=O)O)c2C(=O)N1C,Karthikeyan M.; Glen R.C.; Bender A. General melting point prediction based on a diverse compound dataset and artificial neural networks. J. Chem. Inf. Model.; 2005; 45(3); 581-4390
8469,489591.0,,,8470.0,http://www.alfa.com/en/GP100W.pgm?DSSTK=L09083,61.0,tetrabenzyl pyrophosphate,c1ccc(cc1)COP(=O)(OCc2ccccc2)OP(=O)(OCc3ccccc3)OCc4ccccc4,Alfa Aesar
10656,2034716.0,,,10657.0,http://dx.doi.org/10.1021/ci0500132,168.0,"4-[(4-chlorophenyl)(hydroxy)methyl]-2-phenyl-5-(trifluoromethyl)-2,4-dihydro-3H-pyrazol-3-one",Clc1ccc(cc1)C(O)C1C(=O)N(N=C1C(F)(F)F)c1ccccc1,Karthikeyan M.; Glen R.C.; Bender A. General melting point prediction based on a diverse compound dataset and artificial neural networks. J. Chem. Inf. Model.; 2005; 45(3); 581-2239
13606,70705.0,,,13607.0,http://www.amazon.com/dp/B002IYRJWI,-78.0,2-methyl-1-octene,C=C(C)CCCCCC,American Petroleum Institute. Research Project 44; Selected Values of Properties of Hydrocarbons and Related Compounds. Texas A & M University; College Station; TX; 1973.
18872,12469.0,,,18873.0,http://www.srcinc.com/what-we-do/product.aspx?id=133,96.0,"2,5-furandione, 3,4-dimethyl-",O=C1OC(=O)C(C)=C1C,PHYSPROP
20362,7890.0,,,20363.0,http://www.srcinc.com/what-we-do/product.aspx?id=133,-9.6,dodecane,CCCCCCCCCCCC,PHYSPROP
3973,2279124.0,,,3974.0,http://www.alfa.com/en/GP100W.pgm?DSSTK=L20129,105.0,"3h-1,2-benzodithiol-one 1,1-dioxide",c1ccc2c(c1)C(=O)SS2(=O)=O,Alfa Aesar
25243,552744.0,,,25244.0,http://www.srcinc.com/what-we-do/product.aspx?id=133,72.0,crotonic acid,CC=CC(=O)O,PHYSPROP
22245,1477.0,,,22246.0,http://www.srcinc.com/what-we-do/product.aspx?id=133,110.0,2-amino-2-methylpropanediol,CC(N)(CO)CO,PHYSPROP
3515,13839110.0,,,3516.0,http://www.alfa.com/en/GP100W.pgm?DSSTK=A12236,63.0,"3,5-dimethylphenol",Cc1cc(cc(c1)O)C,Alfa Aesar
20636,7327.0,,,20637.0,http://www.srcinc.com/what-we-do/product.aspx?id=133,37.5,"benzene, 1,2-dichloro-4-(chloromethyl)-",Clc1ccc(CCl)cc1Cl,PHYSPROP
2454,12818.0,,,2455.0,http://www.alfa.com/en/GP100W.pgm?DSSTK=B20451,45.0,2-chlorobenzonitrile,c1ccc(c(c1)C#N)Cl,Alfa Aesar
1522,73766.0,,,1523.0,http://www.alfa.com/en/GP100W.pgm?DSSTK=B24358,37.0,"2,4-dimethoxybenzyl alcohol",COc1ccc(c(c1)OC)CO,Alfa Aesar
5045,17161.0,,,5046.0,http://www.alfa.com/en/GP100W.pgm?DSSTK=A18575,166.0,4-dimethylamino-4'-methylazobenzene,Cc1ccc(cc1)/N=N/c2ccc(cc2)N(C)C,Alfa Aesar
8414,61586.0,,,8415.0,http://www.alfa.com/en/GP100W.pgm?DSSTK=A10453,63.0,sesamol,c1cc2c(cc1O)OCO2,Alfa Aesar
8557,191400.0,,,8558.0,http://www.alfa.com/en/GP100W.pgm?DSSTK=B23150,117.0,"trans-2,5-dimethylpiperazine",C[C@@H]1CN[C@H](CN1)C,Alfa Aesar
6531,60603.0,,,6532.0,http://www.alfa.com/en/GP100W.pgm?DSSTK=L12110,142.0,bis(2-benzamidophenyl) disulfide,c1ccc(cc1)C(=O)Nc2ccccc2SSc3ccccc3NC(=O)c4ccccc4,Alfa Aesar
3640,11080.0,,,3641.0,http://www.alfa.com/en/GP100W.pgm?DSSTK=A11943,124.0,3-aminophenol,c1cc(cc(c1)O)N,Alfa Aesar
25218,533281.0,,,25219.0,http://www.srcinc.com/what-we-do/product.aspx?id=133,44.0,"oxazole, 4,5-diphenyl-",c1ccc(cc1)c2ncoc2c3ccccc3,PHYSPROP
566,73671.0,,,567.0,http://www.alfa.com/en/GP100W.pgm?DSSTK=L09968,-23.0,"1,3-dimethyl-3,4,5,6-tetrahydro-2(1h)-pyrimidinone",CN1CCCN(C1=O)C,Alfa Aesar
23580,63503.0,,,23581.0,http://www.srcinc.com/what-we-do/product.aspx?id=133,56.0,(2-naphthyl)bromomethane,BrCc1ccc2ccccc2c1,PHYSPROP
26465,13837112.0,,,26466.0,http://www.srcinc.com/what-we-do/product.aspx?id=133,-57.2,"1-chloro-2,3-epoxypropane",ClCC1CO1,PHYSPROP
8859,4088.0,,,8860.0,http://dx.doi.org/10.1021/ci020280x,164.0,modafinil,NC(=O)CS(=O)C(c1ccccc1)c2ccccc2,Bergstrom C. A. S.; Norinder U.; Luthman K.; Artursson P. Molecular Descriptors Influencing Melting Point and Their Role in Classification of Solid Drugs. J. Chem. Inf. Comput. Sci.; (Article); 2003; 43(4); 1177-1306
8545,111629.0,,,8546.0,http://www.alfa.com/en/GP100W.pgm?DSSTK=A13905,64.0,tiglic acid,C/C=C(C)/C(=O)O,Alfa Aesar
20124,8541.0,,,20125.0,http://www.srcinc.com/what-we-do/product.aspx?id=133,-4.0,diallyl diglycol carbonate,C=CCOC(=O)OCCOCCOC(=O)OCC=C,PHYSPROP
17686,23050.0,,,17687.0,http://www.srcinc.com/what-we-do/product.aspx?id=133,-54.1,sulfuryl chloride,ClS(Cl)(=O)=O,PHYSPROP
25172,483541.0,,,25173.0,http://www.srcinc.com/what-we-do/product.aspx?id=133,-3.0,5-nonynoic acid,O=C(O)CCCC#CCCC,PHYSPROP
23419,62552.0,,,23420.0,http://www.srcinc.com/what-we-do/product.aspx?id=133,105.0,"n,n'-dipropylurea",CCCNC(=O)NCCC,PHYSPROP
4051,71103.0,,,4052.0,http://www.alfa.com/en/GP100W.pgm?DSSTK=L08891,233.0,3-methoxy-4-nitrobenzoic acid,COc1cc(ccc1[N+](=O)[O-])C(=O)O,Alfa Aesar
7392,5379862.0,,,7393.0,http://www.alfa.com/en/GP100W.pgm?DSSTK=L19636,115.0,isoquinoline-5-carboxaldehyde,c1cc2cnccc2c(c1)C=O,Alfa Aesar
16535,6055.0,,,16536.0,http://www.drugbank.ca/drugs/DB04833,113.0,Methaqualone,Cc1ccccc1N3C(C)=Nc2ccccc2C3=O,DrugBank
27836,5593.0,,,27837.0,http://chemspider.com/5593,170.5,benzimidazole,c1ccc2c(c1)[nH]cn2,EPISuite-ChemSpider
14624,96816.0,,,14625.0,http://www.amazon.com/dp/B003XEQTLE,92.0,o-iodobenzyl_alcohol,OCc1ccccc1I,Aldrich Chemical Company; Aldrich Catalog-Handbook of Fine Chemicals; Milwaukee; WI; 1984.
13550,6630.0,,,13551.0,http://www.amazon.com/dp/B003XEQTLE,12.0,"2,6-dimethylaniline",Cc1cccc(C)c1N,Aldrich Chemical Company; Aldrich Catalog-Handbook of Fine Chemicals; Milwaukee; WI; 1984.
13861,15387.0,,,13862.0,http://www.questia.com/library/book/physical_properties_of_chemical_compounds_by_robert_rickert_dreisbach.jsp,-1.0,1-aminononane,CCCCCCCCCN,Dreisbach R. R. Physical Properties of Chemical Compounds; Vol. III; American Chemical Society; Washington; 1961.
11353,2031935.0,,,11354.0,http://dx.doi.org/10.1021/ci0500132,206.0,"1-(2-bromo-2-phenylethyl)-4,7,7-trimethyl-2-oxabicyclo[2.2.1]heptan-3-one",BrC(CC12OC(=O)C(C)(CC1)C2(C)C)c1ccccc1,Karthikeyan M.; Glen R.C.; Bender A. General melting point prediction based on a diverse compound dataset and artificial neural networks. J. Chem. Inf. Model.; 2005; 45(3); 581-2936
9256,7855694.0,,,9257.0,http://dx.doi.org/10.1021/ci0500132,155.0,"ethyl [4-cyano-1-(1-methyl-1H-pyrazolo[3,4-d]pyrimidin-4-yl)-1H-pyrazol-5-yl]imidoformate",O(C=Nc1[nH0]([nH0]cc1C#N)c1[nH0]c[nH0]c2[nH0]([nH0]cc21)C)CC,Karthikeyan M.; Glen R.C.; Bender A. General melting point prediction based on a diverse compound dataset and artificial neural networks. J. Chem. Inf. Model.; 2005; 45(3); 581-839
28197,35885.0,,,28198.0,http://www.aapspharmscitech.org/view.asp?art=pt070126,25.0,isazophos,Clc1nc(OP(=S)(OCC)OCC)nn1C(C)C,Sepassi K; Yalkowsky SH; AAPS PharmSciTech; 7(1); E1-E8 (2006)
3484,73763.0,,,3485.0,http://www.alfa.com/en/GP100W.pgm?DSSTK=A15109,46.0,"3,5-dimethoxybenzaldehyde",COc1cc(cc(c1)OC)C=O,Alfa Aesar
18660,13535.0,,,18661.0,http://www.srcinc.com/what-we-do/product.aspx?id=133,215.0,"1,4-naphthoquinone,3-anilino-2-chloro",O=C3c1ccccc1C(=O)C(Cl)=C3Nc2ccccc2,PHYSPROP
23743,66363.0,,,23744.0,http://www.srcinc.com/what-we-do/product.aspx?id=133,-55.0,"silane, trimethylphenoxy-",C[Si](C)(C)Oc1ccccc1,PHYSPROP
10958,2033856.0,,,10959.0,http://dx.doi.org/10.1021/ci0500132,89.0,"2-methyl-1,2-dihydro-6H-pyrido[1,2-b]isoquinolin-6-one",O=C1N2C=CC(C)CC2=Cc2ccccc12,Karthikeyan M.; Glen R.C.; Bender A. General melting point prediction based on a diverse compound dataset and artificial neural networks. J. Chem. Inf. Model.; 2005; 45(3); 581-2541
22607,35726.0,,,22608.0,http://www.srcinc.com/what-we-do/product.aspx?id=133,187.0,tricyclazole,Cc1cccc2sc3nncn3c12,PHYSPROP
28579,14062.0,,,28580.0,http://dx.doi.org/10.1016/j.chemosphere.2013.10.095,116.5,Testosterone phenylpropanoate,C[C@]12CC[C@H]3[C@H]([C@@H]1CC[C@@H]2OC(=O)CCC4=CC=CC=C4)CCC5=CC(=O)CC[C@]35C,Abraham M.H. and Acree Jr. W.E. The solubility of liquid and solid compounds in dry octan-1-ol. Chemosphere (2013)
28626,21105844.0,,,28627.0,http://usefulchem.wikispaces.com/exp173,141.0,Ugi product 173B (UC),CC(C)(C)NC(=O)C(N(C)C(=O)CCCc4ccc3ccc2cccc1ccc4c3c12)c5ccc(C)cc5,UsefulChem
12937,10600.0,,,12938.0,http://dx.doi.org/10.1021/ci0500132,175.0,"Uracil, 6-amino-3-methyl-1- (2-methylallyl)-",O=C1N(C)C(=O)C=C(N)N1CC(=C)C,Karthikeyan M.; Glen R.C.; Bender A. General melting point prediction based on a diverse compound dataset and artificial neural networks. J. Chem. Inf. Model.; 2005; 45(3); 581-4520
23383,62437.0,,,23384.0,http://www.srcinc.com/what-we-do/product.aspx?id=133,51.0,"phenol, 2,4-bis(1,1-dimethylethyl)-6-methyl-",CC(C)(C)c1cc(cc(C)c1O)C(C)(C)C,PHYSPROP
6237,409827.0,,,6238.0,http://www.alfa.com/en/GP100W.pgm?DSSTK=B24850,110.0,7-methoxyflavone,COc1ccc2c(=O)cc(oc2c1)c3ccccc3,Alfa Aesar
18886,12431.0,,,18887.0,http://www.srcinc.com/what-we-do/product.aspx?id=133,-61.0,"3,4-dichloro-1-butene",C=CC(Cl)CCl,PHYSPROP
3097,558553.0,,,3098.0,http://www.alfa.com/en/GP100W.pgm?DSSTK=B21653,142.0,3-(2-furyl)acrylic acid,c1cc(oc1)/C=C/C(=O)O,Alfa Aesar
14752,839564.0,,,14753.0,http://msds.chem.ox.ac.uk/,180.0,"(1E,6E)-1,7-Bis(4-hydroxy-3-methoxyphenyl)hepta-1,6-diene-3,5-dione",Oc1ccc(cc1OC)/C=C/C(=O)CC(=O)/C=C/c2ccc(O)c(OC)c2,academic website
21146,6367.0,,,21147.0,http://www.srcinc.com/what-we-do/product.aspx?id=133,135.0,tetrachlorodian,Clc1cc(cc(Cl)c1O)C(C)(C)c2cc(Cl)c(O)c(Cl)c2,PHYSPROP
6524,14584.0,,,6525.0,http://www.alfa.com/en/GP100W.pgm?DSSTK=L03450,234.0,"biphenyl-4,4'-dicarbonitrile",c1cc(ccc1C#N)c2ccc(cc2)C#N,Alfa Aesar
4289,66841.0,,,4290.0,http://www.alfa.com/en/GP100W.pgm?DSSTK=B22275,201.0,4-(chloromethyl)benzoic acid,c1cc(ccc1CCl)C(=O)O,Alfa Aesar
17421,29299.0,,,17422.0,http://www.srcinc.com/what-we-do/product.aspx?id=133,189.0,"1h-imidazole-1-acetamide, 2-nitro-n-(phenylmethy",O=C(Cn1ccnc1[N+]([O-])=O)NCc2ccccc2,PHYSPROP
21412,5650.0,,,21413.0,http://www.srcinc.com/what-we-do/product.aspx?id=133,53.0,famphur,O=S(=O)(N(C)C)c1ccc(OP(=S)(OC)OC)cc1,PHYSPROP
1864,2045172.0,,,1865.0,http://www.alfa.com/en/GP100W.pgm?DSSTK=L20113,43.0,2-acetyl-3-bromothiophene,CC(=O)c1c(ccs1)Br,Alfa Aesar
25634,4473543.0,,,25635.0,http://www.srcinc.com/what-we-do/product.aspx?id=133,7.0,beta-bromostyrene,BrC=Cc1ccccc1,PHYSPROP
24879,191945.0,,,24880.0,http://www.srcinc.com/what-we-do/product.aspx?id=133,59.0,n-methyl butylcarbamate,CNC(=O)OCCCC,PHYSPROP
18423,14908.0,,,18424.0,http://www.srcinc.com/what-we-do/product.aspx?id=133,2.1,dichloromethyl trichloromethyl ketone,ClC(Cl)C(=O)C(Cl)(Cl)Cl,PHYSPROP
7061,11485.0,,,7062.0,http://www.alfa.com/en/GP100W.pgm?DSSTK=A13909,34.0,ethyl 2-furoate,CCOC(=O)c1ccco1,Alfa Aesar
17588,25605.0,,,17589.0,http://www.srcinc.com/what-we-do/product.aspx?id=133,76.3,"2,4,5-trichlorobiphenyl",Clc2cc(c1ccccc1)c(Cl)cc2Cl,PHYSPROP
5324,5622.0,,,5325.0,http://www.alfa.com/en/GP100W.pgm?DSSTK=A13253,127.0,4'-methoxyacetanilide,CC(=O)Nc1ccc(cc1)OC,Alfa Aesar
27925,5775.0,,,27926.0,http://books.google.com/books?id=kEYfRAAACAAJ,148.5,cholesterol,C[C@H](CCCC(C)C)[C@H]1CC[C@@H]2[C@@]1(CC[C@H]3[C@H]2CC=C4[C@@]3(CC[C@@H](C4)O)C)C,Merck Index
24374,82753.0,,,24375.0,http://www.srcinc.com/what-we-do/product.aspx?id=133,96.3,pyrimethanil,Cc2cc(C)nc(Nc1ccccc1)n2,PHYSPROP
13536,120155.0,,,13537.0,http://www.questia.com/library/book/physical_properties_of_chemical_compounds_by_robert_rickert_dreisbach.jsp,-10.0,"2-chloro-2,3-dimethylbutane",CC(C)C(C)(C)Cl,Dreisbach R. R. Physical Properties of Chemical Compounds; Vol. III; American Chemical Society; Washington; 1961.
21834,3562.0,,,21835.0,http://www.srcinc.com/what-we-do/product.aspx?id=133,40.0,ifosfamide,O=P1(NCCCl)OCCCN1CCCl,PHYSPROP
2873,21106133.0,,,2874.0,http://www.alfa.com/en/GP100W.pgm?DSSTK=L07593,3.0,2-methyl-3-butyn-2-ol,CC(C)(C#C)O,Alfa Aesar
19958,9218.0,,,19959.0,http://www.srcinc.com/what-we-do/product.aspx?id=133,83.0,3-fluoroacetanilide,O=C(C)Nc1cccc(F)c1,PHYSPROP