,csid,donotuse,donotusebecause,key,link,mpC,name,smiles,source
9166,10483321.0,,,9167.0,http://dx.doi.org/10.1021/ci0500132,218.0,"3,5-Di-tert-butyl-N-cyclohexyl-4-hydroxy-thiobenzamide",S=C(NC1CCCCC1)c1cc(c(O)c(c1)C(C)(C)C)C(C)(C)C,Karthikeyan M.; Glen R.C.; Bender A. General melting point prediction based on a diverse compound dataset and artificial neural networks. J. Chem. Inf. Model.; 2005; 45(3); 581-749
19172,11589.0,,,19173.0,http://www.srcinc.com/what-we-do/product.aspx?id=133,112.5,4-ethylbenzoic acid,CCc1ccc(cc1)C(=O)O,PHYSPROP
20664,7283.0,,,20665.0,http://www.srcinc.com/what-we-do/product.aspx?id=133,66.0,4-aminodiphenylamine,Nc2ccc(Nc1ccccc1)cc2,PHYSPROP
25119,454638.0,,,25120.0,http://www.srcinc.com/what-we-do/product.aspx?id=133,262.5,cedrene,CC1=CCC23CC1C(C)(C)C3CCC2C,PHYSPROP
7788,21476892.0,,,7789.0,http://www.alfa.com/en/GP100W.pgm?DSSTK=H32855,174.0,N-(4'-methoxy-4-biphenylylsulfonyl)-s-methylhomocysteine,COc1ccc(cc1)c2ccc(cc2)S(=O)(=O)NC(CCSC)C(=O)O,Alfa Aesar
22956,59154.0,,,22957.0,http://www.srcinc.com/what-we-do/product.aspx?id=133,295.0,"1,4-dicl-2,3-dipho-9,10-anthracenedione",O=C2c1ccccc1C(=O)c3c2c(N)c(Cl)c(Cl)c3N,PHYSPROP
2354,1991.0,,,2355.0,http://www.alfa.com/en/GP100W.pgm?DSSTK=A19702,170.0,2-chloro-4-nitrobenzamide,c1cc(c(cc1[N+](=O)[O-])Cl)C(=O)N,Alfa Aesar
8211,960.0,,,8212.0,http://www.alfa.com/en/GP100W.pgm?DSSTK=B20322,61.0,palmitic acid,CCCCCCCCCCCCCCCC(=O)O,Alfa Aesar
13198,12201.0,,,13199.0,http://www.amazon.com/dp/B002IYRJWI,-154.0,4-methyl-1-pentene,CC(C)CC=C,American Petroleum Institute. Research Project 44; Selected Values of Properties of Hydrocarbons and Related Compounds. Texas A & M University; College Station; TX; 1973.
18367,15232.0,,,18368.0,http://www.srcinc.com/what-we-do/product.aspx?id=133,164.5,palustric acid,CC(C)C2=CC=3CCC1C(C)(CCCC1(C)C(=O)O)C=3CC2,PHYSPROP
13214,84221.0,,,13215.0,http://www.amazon.com/dp/B002IYRJWI,-130.0,1-methyl-1-ethylcyclopropane,CC1(CC)CC1,American Petroleum Institute. Research Project 44; Selected Values of Properties of Hydrocarbons and Related Compounds. Texas A & M University; College Station; TX; 1973.
9857,4644621.0,,,9858.0,http://dx.doi.org/10.1021/ci0500132,316.0,"(5Z,5'Z)-5,5'-[benzene-1,3-diyldi(Z)methylylidene]bis(2-thioxo-1,3-thiazolidin-4-one)",S=C1SC(=Cc2cccc(c2)C=C2SC(=S)NC2=O)C(=O)N1,Karthikeyan M.; Glen R.C.; Bender A. General melting point prediction based on a diverse compound dataset and artificial neural networks. J. Chem. Inf. Model.; 2005; 45(3); 581-1440
20802,7027.0,,,20803.0,http://www.srcinc.com/what-we-do/product.aspx?id=133,-71.9,2-chlorothiophene,Clc1cccs1,PHYSPROP
16908,5129.0,,,16909.0,http://www.drugbank.ca/drugs/DB00634,183.0,Sulfacetamide,Nc1ccc(cc1)S(=O)(=O)NC(C)=O,DrugBank
11038,2033759.0,,,11039.0,http://dx.doi.org/10.1021/ci0500132,68.0,"7-phenylbicyclo[4.2.0]octa-1,3,5-trien-7-ol",OC1(Cc2ccccc21)c1ccccc1,Karthikeyan M.; Glen R.C.; Bender A. General melting point prediction based on a diverse compound dataset and artificial neural networks. J. Chem. Inf. Model.; 2005; 45(3); 581-2621
21,7852.0,,,22.0,http://www.alfa.com/en/GP100W.pgm?DSSTK=L07195,-49.0,1-octanethiol,CCCCCCCCS,Alfa Aesar
759,11207057.0,,,760.0,http://www.alfa.com/en/GP100W.pgm?DSSTK=H27640,294.0,"1,1':3',1''-terphenyl-5'-boronic acid",B(c1cc(cc(c1)c2ccccc2)c3ccccc3)(O)O,Alfa Aesar
17093,512534.0,,,17094.0,http://dx.doi.org/10.1021/ci700307p,197.0,7-methylpteridine,Cc1cnc2cncnc2n1,Hughes LD; Palmer DS; Nigsch F and Mitchell JBO. 2008 Why are some properties more difficult to predict than others? A study of QSPR models of solubility; melting point and LogP. J. Chem. Inf. Model. 2008. 48 (1). pp 220?241
13624,13443.0,,,13625.0,http://www.amazon.com/dp/B002IYRJWI,-113.0,"2,2-dimethylheptane",CC(C)(C)CCCCC,American Petroleum Institute. Research Project 44; Selected Values of Properties of Hydrocarbons and Related Compounds. Texas A & M University; College Station; TX; 1973.
4837,87661.0,,,4838.0,http://www.alfa.com/en/GP100W.pgm?DSSTK=B21481,-2.0,4-chloro-2-(methylthio)pyrimidine,CSc1nccc(n1)Cl,Alfa Aesar
185,13856885.0,,,186.0,http://www.alfa.com/en/GP100W.pgm?DSSTK=A11057,23.0,1-fluoro-4-nitrobenzene,c1cc(ccc1[N+](=O)[O-])F,Alfa Aesar
20195,8274.0,,,20196.0,http://www.srcinc.com/what-we-do/product.aspx?id=133,214.5,2-phenylcinchoninic acid,O=C(O)c1cc(nc2ccccc12)c3ccccc3,PHYSPROP
23057,60187.0,,,23058.0,http://www.srcinc.com/what-we-do/product.aspx?id=133,68.5,"benzenesulfonyl fluoride, 4-amino-",Nc1ccc(cc1)S(=O)(F)=O,PHYSPROP
6910,55167.0,,,6911.0,http://www.alfa.com/en/GP100W.pgm?DSSTK=L17689,190.0,"dimethyl naphthalene-2,6-dicarboxylate",COC(=O)c1ccc2cc(ccc2c1)C(=O)OC,Alfa Aesar
143,12010.0,,,144.0,http://www.alfa.com/en/GP100W.pgm?DSSTK=A13784,-75.0,1-iodohexane,CCCCCCI,Alfa Aesar
6172,63466.0,,,6173.0,http://www.alfa.com/en/GP100W.pgm?DSSTK=H26302,129.0,6-methylpyridine-2-carboxylic acid,Cc1cccc(n1)C(=O)O,Alfa Aesar
5330,7123.0,,,5331.0,http://www.alfa.com/en/GP100W.pgm?DSSTK=A13788,40.0,4-methoxybenzenesulfonyl chloride,COc1ccc(cc1)S(=O)(=O)Cl,Alfa Aesar
8228,21106527.0,,,8229.0,http://www.alfa.com/en/GP100W.pgm?DSSTK=A15490,26.0,pentafluorobenzaldehyde,C(=O)c1c(c(c(c(c1F)F)F)F)F,Alfa Aesar
4110,89642.0,,,4111.0,http://www.alfa.com/en/GP100W.pgm?DSSTK=H53458,139.0,3-methylhippuric acid,Cc1cccc(c1)C(=O)NCC(=O)O,Alfa Aesar
28348,28296463.0,,,28349.0,http://malaria.ourexperiment.org/uri/74,310.0,OSM-S-45,O=C1N=C(N(C(C)=O)C2=CC=CC=C2)S/C1=C\C3=C(C)N(C(C)=C3)C4=CC=C(C(F)(F)F)C=C4,OSDD
27894,2424.0,,,27895.0,http://dx.doi.org/10.1016/j.chemosphere.2013.10.095,236.0,Caffeine,CN1C=NC2=C1C(=O)N(C(=O)N2C)C,Abraham M.H. and Acree Jr. W.E. The solubility of liquid and solid compounds in dry octan-1-ol. Chemosphere (2013)
13175,13835224.0,,,13176.0,http://www.amazon.com/dp/B003XEQTLE,-60.0,"1,2-propanediol",CC(O)CO,Aldrich Chemical Company; Aldrich Catalog-Handbook of Fine Chemicals; Milwaukee; WI; 1984.
22798,53706.0,,,22799.0,http://www.srcinc.com/what-we-do/product.aspx?id=133,65.0,s-phenylmercaptoacetic acid,O=C(O)CSc1ccccc1,PHYSPROP
8537,7681.0,,,8538.0,http://www.alfa.com/en/GP100W.pgm?DSSTK=A15916,-15.0,thiophenol,c1ccc(cc1)S,Alfa Aesar
15076,7132.0,,,15077.0,http://msds.chem.ox.ac.uk/,19.0,1-Phenylethanone,CC(=O)c1ccccc1,academic website
6191,90930.0,,,6192.0,http://www.alfa.com/en/GP100W.pgm?DSSTK=A18400,223.0,7-amino-4-(trifluoromethyl)coumarin,c1cc2c(cc(=O)oc2cc1N)C(F)(F)F,Alfa Aesar
21825,3597.0,,,21826.0,http://www.srcinc.com/what-we-do/product.aspx?id=133,210.0,"8-quinolinol, 5,7-diiodo-",Oc1c(I)cc(I)c2cccnc12,PHYSPROP
343,122437.0,,,344.0,http://www.alfa.com/en/GP100W.pgm?DSSTK=B24923,62.0,1-benzyloxy-4-bromobenzene,c1ccc(cc1)COc2ccc(cc2)Br,Alfa Aesar
19403,11087.0,,,19404.0,http://www.srcinc.com/what-we-do/product.aspx?id=133,-31.3,iodobenzene,Ic1ccccc1,PHYSPROP
4166,215929.0,,,4167.0,http://www.alfa.com/en/GP100W.pgm?DSSTK=A12113,-23.0,3-octanone,CCCCCC(=O)CC,Alfa Aesar
6134,510041.0,,,6135.0,http://www.alfa.com/en/GP100W.pgm?DSSTK=L10907,160.0,6-fluorosalicylic acid,c1cc(c(c(c1)F)C(=O)O)O,Alfa Aesar
18792,12833.0,,,18793.0,http://www.srcinc.com/what-we-do/product.aspx?id=133,-45.0,"benzene, (propylthio)-",CCCSc1ccccc1,PHYSPROP
12186,1474618.0,,,12187.0,http://dx.doi.org/10.1021/ci0500132,76.0,(3Z)-5-Isobutyl-3-[(5-phenyl-2-furyl)methylene]furan-2(3H)-one,O=C1OC(=CC1=Cc1oc(cc1)c1ccccc1)CC(C)C,Karthikeyan M.; Glen R.C.; Bender A. General melting point prediction based on a diverse compound dataset and artificial neural networks. J. Chem. Inf. Model.; 2005; 45(3); 581-3769
19118,11731.0,,,19119.0,http://www.srcinc.com/what-we-do/product.aspx?id=133,-85.0,dimethyldisulfide,CSSC,PHYSPROP
12273,717778.0,,,12274.0,http://dx.doi.org/10.1021/ci0500132,177.0,"1,2,4-triazolo[3,4-b][1,3,4]thiadiazole, 6-(4-methoxyphenyl)-3-methyl-",S1c2[nH0][nH0]c([nH0]2N=C1c1ccc(OC)cc1)C,Karthikeyan M.; Glen R.C.; Bender A. General melting point prediction based on a diverse compound dataset and artificial neural networks. J. Chem. Inf. Model.; 2005; 45(3); 581-3856
12835,59481.0,,,12836.0,http://dx.doi.org/10.1021/ci0500132,91.0,4-Butyrylphenol,O=C(CCC)c1ccc(O)cc1,Karthikeyan M.; Glen R.C.; Bender A. General melting point prediction based on a diverse compound dataset and artificial neural networks. J. Chem. Inf. Model.; 2005; 45(3); 581-4418
27217,21131952.0,,,27218.0,http://scripts.iucr.org/cgi-bin/paper?na6194,188.85,4-[(4-Chlorophenyl)sulfanyl]-5-phenyl-6-(piperidin-1-yl)pyrimidin-2-amine,Clc4ccc(Sc2nc(nc(c2c1ccccc1)N3CCCCC3)N)cc4,IUCr
28485,4510139.0,,,28486.0,http://dx.doi.org/10.1080/10629360701430124,30.0,prostaglandin f2alpha,O=C(O)CCC/C=C/CC1C(/C=C/C(O)CCCCC)C(O)CC1O,RAEVSKY OA; PERLOVICH GL and SCHAPER K-J. Physicochemical properties/descriptors governing the solubility and partitioning of chemicals in water-solvent-gas systems. Part 2. Solubility in 1-octanol. SAR and QSAR in Environmental Research Vol. 18 Nos. 5–6 July–September 2007 543–578
22921,58069.0,,,22922.0,http://www.srcinc.com/what-we-do/product.aspx?id=133,-30.0,cyclohexyl methylphosphonofluoridate,O=P(C)(F)OC1CCCCC1,PHYSPROP
13579,13869414.0,,,13580.0,http://www.amazon.com/dp/B003XEQTLE,59.0,p-anisidine,Nc1ccc(OC)cc1,Aldrich Chemical Company; Aldrich Catalog-Handbook of Fine Chemicals; Milwaukee; WI; 1984.
2826,522188.0,,,2827.0,http://www.alfa.com/en/GP100W.pgm?DSSTK=L08021,58.0,2-methoxy-5-(trifluoromethyl)aniline,COc1ccc(cc1N)C(F)(F)F,Alfa Aesar
8237,7712.0,,,8238.0,http://www.alfa.com/en/GP100W.pgm?DSSTK=H27427,-130.0,pentane,CCCCC,Alfa Aesar
22590,35032.0,,,22591.0,http://www.srcinc.com/what-we-do/product.aspx?id=133,193.0,"2,7-dibromodibenzo-p-dioxin",Brc1ccc2Oc3cc(Br)ccc3Oc2c1,PHYSPROP
9558,4645795.0,,,9559.0,http://dx.doi.org/10.1021/ci0500132,155.0,"4-{5-[(E)-2-ethoxyethenyl]-4-isocyano-1H-pyrazol-1-yl}-1-methyl-1H-pyrazolo[3,4-d]pyrimidine",O(C=Cc1[nH0]([nH0]cc1[N+]#[C-])c1[nH0]c[nH0]c2[nH0]([nH0]cc21)C)CC,Karthikeyan M.; Glen R.C.; Bender A. General melting point prediction based on a diverse compound dataset and artificial neural networks. J. Chem. Inf. Model.; 2005; 45(3); 581-1141
22838,55123.0,,,22839.0,http://www.srcinc.com/what-we-do/product.aspx?id=133,-62.6,"formic acid, hexyl ester",O=COCCCCCC,PHYSPROP
14062,12674.0,,,14063.0,http://www.amazon.com/dp/B003XEQTLE,5.0,cyclohexylbenzene,c1cc(ccc1)C2CCCCC2,Aldrich Chemical Company; Aldrich Catalog-Handbook of Fine Chemicals; Milwaukee; WI; 1984.
24758,121766.0,,,24759.0,http://www.srcinc.com/what-we-do/product.aspx?id=133,-138.2,"cyclopropane, 1,1,2-trimethyl-",CC1CC1(C)C,PHYSPROP
11836,2030293.0,,,11837.0,http://dx.doi.org/10.1021/ci0500132,171.0,"2,2'-(4,6-dinitrobenzene-1,3-diyl)bis(1-phenylethanone)",O=[N+]([O-])c1cc([N+](=O)[O-])c(cc1CC(=O)c1ccccc1)CC(=O)c1ccccc1,Karthikeyan M.; Glen R.C.; Bender A. General melting point prediction based on a diverse compound dataset and artificial neural networks. J. Chem. Inf. Model.; 2005; 45(3); 581-3419
8833,3442.0,,,8834.0,http://dx.doi.org/10.1021/ci020280x,185.0,haloxazolam,Fc1ccccc1C23OCCN2CC(=O)Nc4ccc(Br)cc34,Bergstrom C. A. S.; Norinder U.; Luthman K.; Artursson P. Molecular Descriptors Influencing Melting Point and Their Role in Classification of Solid Drugs. J. Chem. Inf. Comput. Sci.; (Article); 2003; 43(4); 1177-1280
18208,16089.0,,,18209.0,http://www.srcinc.com/what-we-do/product.aspx?id=133,30.2,5-phenyleicosane,CCCCC(CCCCCCCCCCCCCCC)c1ccccc1,PHYSPROP
6566,79003.0,,,6567.0,http://www.alfa.com/en/GP100W.pgm?DSSTK=B23608,46.0,bis(trimethylsilyl) sulfate,C[Si](C)(C)OS(=O)(=O)O[Si](C)(C)C,Alfa Aesar
15723,5931.0,,,15724.0,http://msds.chem.ox.ac.uk/,-24.0,Diethyl sulfate,O=S(=O)(OCC)OCC,academic website
1713,31916.0,,,1714.0,http://www.alfa.com/en/GP100W.pgm?DSSTK=A11832,4.0,"2,6-dibromotoluene",Cc1c(cccc1Br)Br,Alfa Aesar
1532,21105885.0,,,1533.0,http://www.alfa.com/en/GP100W.pgm?DSSTK=A14655,-9.0,"2,4-dimethylbenzaldehyde",Cc1ccc(c(c1)C)C=O,Alfa Aesar
14224,71120.0,,,14225.0,http://www.amazon.com/dp/B003XEQTLE,210.0,4-chlorosalicylic_acid,OC(=O)c1ccc(Cl)cc1O,Aldrich Chemical Company; Aldrich Catalog-Handbook of Fine Chemicals; Milwaukee; WI; 1984.
21509,5212.0,,,21510.0,http://www.srcinc.com/what-we-do/product.aspx?id=133,147.0,terfenadine,CC(C)(C)c1ccc(cc1)C(O)CCCN2CCC(CC2)C(O)(c3ccccc3)c4ccccc4,PHYSPROP
1424,11509.0,,,1425.0,http://www.alfa.com/en/GP100W.pgm?DSSTK=A13329,80.0,"2,4-dibromoaniline",c1cc(c(cc1Br)Br)N,Alfa Aesar
25339,608157.0,,,25340.0,http://www.srcinc.com/what-we-do/product.aspx?id=133,181.0,2-mercaptobenzothiazole,Sc1nc2ccccc2s1,PHYSPROP
24485,85082.0,,,24486.0,http://www.srcinc.com/what-we-do/product.aspx?id=133,-75.0,"cyclohexane, 1,2,3,4-tetramethyl-",CC1CCC(C)C(C)C1C,PHYSPROP
20346,7912.0,,,20347.0,http://www.srcinc.com/what-we-do/product.aspx?id=133,136.0,dodine,N=C(N)NCCCCCCCCCCCC,PHYSPROP
8863,64045.0,,,8864.0,http://dx.doi.org/10.1021/ci020280x,78.0,moxaverine,CCc3cc1cc(OC)c(OC)cc1c(Cc2ccccc2)n3,Bergstrom C. A. S.; Norinder U.; Luthman K.; Artursson P. Molecular Descriptors Influencing Melting Point and Their Role in Classification of Solid Drugs. J. Chem. Inf. Comput. Sci.; (Article); 2003; 43(4); 1177-1310
24712,120075.0,,,24713.0,http://www.srcinc.com/what-we-do/product.aspx?id=133,-27.5,"phenetole, m-fluoro-",CCOc1cccc(F)c1,PHYSPROP
6371,89855.0,,,6372.0,http://www.alfa.com/en/GP100W.pgm?DSSTK=B21226,134.0,alpha-D-talose,C([C@H]([C@@H]([C@@H]([C@@H](C=O)O)O)O)O)O,Alfa Aesar
7025,682.0,x,clearly out of range JCB,7026.0,http://www.alfa.com/en/GP100W.pgm?DSSTK=33361,-130.0,ethanol,CCO,Alfa Aesar
6373,92719.0,,,6374.0,http://www.alfa.com/en/GP100W.pgm?DSSTK=L01745,80.0,alpha-fluorophenylacetic acid,c1ccc(cc1)C(C(=O)O)F,Alfa Aesar
17559,26223.0,,,17560.0,http://www.srcinc.com/what-we-do/product.aspx?id=133,65.0,"1,1,1,3-tetrachloroacetone",ClC(Cl)(Cl)C(=O)CCl,PHYSPROP
8357,66819.0,,,8358.0,http://www.alfa.com/en/GP100W.pgm?DSSTK=L07687,80.0,"pyridine-3,4-dicarbonitrile",c1cncc(c1C#N)C#N,Alfa Aesar
20120,8545.0,,,20121.0,http://www.srcinc.com/what-we-do/product.aspx?id=133,95.0,"2,5-dimethyl-3-hexyne-2,5-diol",CC(O)(C)C#CC(C)(C)O,PHYSPROP
10125,3191891.0,,,10126.0,http://dx.doi.org/10.1021/ci0500132,162.0,"methyl 3,6,7,12-tetrahydroxycholan-24-oate",O=C(OC)CCC(C)C1CCC2C3C(O)C(O)C4CC(O)CCC4(C)C3CC(O)C21C,Karthikeyan M.; Glen R.C.; Bender A. General melting point prediction based on a diverse compound dataset and artificial neural networks. J. Chem. Inf. Model.; 2005; 45(3); 581-1708
6145,295996.0,,,6146.0,http://www.alfa.com/en/GP100W.pgm?DSSTK=L15819,103.0,6-methoxy-1-indanone,COc1ccc2c(c1)C(=O)CC2,Alfa Aesar
27723,9824.0,,,27724.0,http://dx.doi.org/10.1016/j.chemosphere.2013.10.095,83.0,9-fluorenone,C1=CC=C2C(=C1)C3=CC=CC=C3C2=O,Abraham M.H. and Acree Jr. W.E. The solubility of liquid and solid compounds in dry octan-1-ol. Chemosphere (2013)
28097,3218.0,,,28098.0,http://dx.doi.org/10.1080/10629360701430124,186.0,fenbufen,O=C(O)CCC(=O)c2ccc(c1ccccc1)cc2,RAEVSKY OA; PERLOVICH GL and SCHAPER K-J. Physicochemical properties/descriptors governing the solubility and partitioning of chemicals in water-solvent-gas systems. Part 2. Solubility in 1-octanol. SAR and QSAR in Environmental Research Vol. 18 Nos. 5–6 July–September 2007 543–578
2934,7688.0,,,2935.0,http://www.alfa.com/en/GP100W.pgm?DSSTK=A14146,-30.0,2-methylpyrazine,Cc1cnccn1,Alfa Aesar
25962,10239201.0,,,25963.0,http://www.srcinc.com/what-we-do/product.aspx?id=133,-15.2,trifluoroacetic acid,FC(F)(F)C(=O)O,PHYSPROP
5206,70511.0,,,5207.0,http://www.alfa.com/en/GP100W.pgm?DSSTK=A18056,87.0,4-hydroxy-3-methoxybenzonitrile,COc1cc(ccc1O)C#N,Alfa Aesar
113,471564.0,,,114.0,http://www.alfa.com/en/GP100W.pgm?DSSTK=H51866,242.0,1-methylimidazole-4-carboxylic acid,Cn1cc(nc1)C(=O)O,Alfa Aesar
5246,71661.0,,,5247.0,http://www.alfa.com/en/GP100W.pgm?DSSTK=B22723,88.0,4-hydroxypiperidine,C1CNCCC1O,Alfa Aesar
12439,496474.0,,,12440.0,http://dx.doi.org/10.1021/ci0500132,123.0,"N-(2,2-diphenylethyl)benzamide",O=C(NCC(c1ccccc1)c1ccccc1)c1ccccc1,Karthikeyan M.; Glen R.C.; Bender A. General melting point prediction based on a diverse compound dataset and artificial neural networks. J. Chem. Inf. Model.; 2005; 45(3); 581-4022
16355,4607.0,,,16356.0,http://www.drugbank.ca/drugs/DB00191,205.0,Phentermine,NC(C)(C)Cc1ccccc1,DrugBank
6516,2275.0,,,6517.0,http://www.alfa.com/en/GP100W.pgm?DSSTK=B23197,-34.0,beta-propiolactone,C1COC1=O,Alfa Aesar
23280,61751.0,,,23281.0,http://www.srcinc.com/what-we-do/product.aspx?id=133,154.8,4-aminoquinoline,Nc1ccnc2ccccc12,PHYSPROP
4020,7683.0,,,4021.0,http://www.alfa.com/en/GP100W.pgm?DSSTK=A13910,127.0,3-hydroxypyridine,c1cc(cnc1)O,Alfa Aesar
25502,2898626.0,,,25503.0,http://www.srcinc.com/what-we-do/product.aspx?id=133,195.0,sumatrol,C=C(C)C2Oc3cc(O)c1C(=O)C4c5cc(OC)c(OC)cc5OCC4Oc1c3C2,PHYSPROP
6178,68447.0,,,6179.0,http://www.alfa.com/en/GP100W.pgm?DSSTK=A14792,188.0,6-nitrocoumarin,c1cc(=O)oc2c1cc(cc2)[N+](=O)[O-],Alfa Aesar
5853,2005873.0,,,5854.0,http://www.alfa.com/en/GP100W.pgm?DSSTK=L09380,157.0,5-chloro-2-nitrobenzamide,c1cc(c(cc1Cl)C(=O)N)[N+](=O)[O-],Alfa Aesar
22263,1253.0,,,22264.0,http://www.srcinc.com/what-we-do/product.aspx?id=133,122.0,dl-mandelic acid,OC(C(=O)O)c1ccccc1,PHYSPROP
495,69450.0,,,496.0,http://www.alfa.com/en/GP100W.pgm?DSSTK=A10472,84.0,"1,4-dibromo-2-nitrobenzene",c1cc(c(cc1Br)[N+](=O)[O-])Br,Alfa Aesar
12408,530153.0,,,12409.0,http://dx.doi.org/10.1021/ci0500132,58.0,2-methyl-3-phenyl-1H-indene,CC=1Cc2ccccc2C=1c1ccccc1,Karthikeyan M.; Glen R.C.; Bender A. General melting point prediction based on a diverse compound dataset and artificial neural networks. J. Chem. Inf. Model.; 2005; 45(3); 581-3991
8576,18549678.0,,,8577.0,http://www.alfa.com/en/GP100W.pgm?DSSTK=B21897,50.0,trans-4-ethylcyclohexanecarboxylic acid,CC[C@H]1CC[C@@H](CC1)C(=O)O,Alfa Aesar
27708,2928.0,,,27709.0,http://dx.doi.org/10.1080/10629360701430124,110.0,"4,4'-DDT",Clc1ccc(cc1)C(c2ccc(Cl)cc2)C(Cl)(Cl)Cl,RAEVSKY OA; PERLOVICH GL and SCHAPER K-J. Physicochemical properties/descriptors governing the solubility and partitioning of chemicals in water-solvent-gas systems. Part 2. Solubility in 1-octanol. SAR and QSAR in Environmental Research Vol. 18 Nos. 5–6 July–September 2007 543–578
14436,20737.0,,,14437.0,http://www.amazon.com/dp/B002IYRJWI,0.0,"1,2-diphenylpropane",CC(Cc1ccccc1)c2ccccc2,American Petroleum Institute. Research Project 44; Selected Values of Properties of Hydrocarbons and Related Compounds. Texas A & M University; College Station; TX; 1973.
6461,8782511.0,,,6462.0,http://www.alfa.com/en/GP100W.pgm?DSSTK=H32454,138.0,benzothiazole-6-carbonitrile,c1cc2c(cc1C#N)scn2,Alfa Aesar
1314,2079700.0,,,1315.0,http://www.alfa.com/en/GP100W.pgm?DSSTK=A13585,157.0,"2,3-dimethylbenzamide",Cc1cccc(c1C)C(=O)N,Alfa Aesar
522,4527500.0,,,523.0,http://www.alfa.com/en/GP100W.pgm?DSSTK=A13534,182.0,"1,4-bis(2-methylstyryl)benzene",Cc1c(cccc1)/C=C/c2ccc(cc2)/C=C/c3c(cccc3)C,Alfa Aesar
2115,482681.0,,,2116.0,http://www.alfa.com/en/GP100W.pgm?DSSTK=L20019,124.0,2-bromo-3-nitropyridine,c1cc(c(nc1)Br)[N+](=O)[O-],Alfa Aesar
11043,2033751.0,x,salt - AL,11044.0,http://dx.doi.org/10.1021/ci0500132,193.0,"2,4,6-trinitrophenol - cyclodecane-1,6-diylbis(dimethylamine oxide) (1:1)",O=[N+]([O-])c1cc([N+](=O)[O-])c(O)c([N+](=O)[O-])c1.[O-][N+](C)(C)C1CCCCC([N+]([O-])(C)C)CCCC1,Karthikeyan M.; Glen R.C.; Bender A. General melting point prediction based on a diverse compound dataset and artificial neural networks. J. Chem. Inf. Model.; 2005; 45(3); 581-2626
22948,59022.0,,,22949.0,http://www.srcinc.com/what-we-do/product.aspx?id=133,79.5,"2-propanone, 1,1,1,3,3-pentabromo-",BrC(Br)C(=O)C(Br)(Br)Br,PHYSPROP
24749,121262.0,,,24750.0,http://www.srcinc.com/what-we-do/product.aspx?id=133,143.0,4-propylbenzoic acid,CCCc1ccc(cc1)C(=O)O,PHYSPROP
8809,3086.0,,,8810.0,http://dx.doi.org/10.1021/ci020280x,87.0,econazole,Clc3ccc(COC(Cn1ccnc1)c2ccc(Cl)cc2Cl)cc3,Bergstrom C. A. S.; Norinder U.; Luthman K.; Artursson P. Molecular Descriptors Influencing Melting Point and Their Role in Classification of Solid Drugs. J. Chem. Inf. Comput. Sci.; (Article); 2003; 43(4); 1177-1256