,csid,donotuse,donotusebecause,key,link,mpC,name,smiles,source
20090,8674.0,,,20091.0,http://www.srcinc.com/what-we-do/product.aspx?id=133,-52.0,m-dimethoxybenzene,COc1cccc(OC)c1,PHYSPROP
22679,38364.0,,,22680.0,http://www.srcinc.com/what-we-do/product.aspx?id=133,60.0,"1-bromo-2,3-dichlorobenzene",Clc1cccc(Br)c1Cl,PHYSPROP
16722,13837702.0,,,16723.0,http://www.drugbank.ca/drugs/DB01917,27.5,Putrescine,NCCCCN,DrugBank
4632,2019419.0,,,4633.0,http://www.alfa.com/en/GP100W.pgm?DSSTK=L18520,130.0,4-benzyloxy-3-fluorobenzeneboronic acid,B(c1ccc(c(c1)F)OCc2ccccc2)(O)O,Alfa Aesar
649,7427.0,,,650.0,http://www.alfa.com/en/GP100W.pgm?DSSTK=B20865,95.0,"1,2-diphenoxyethane",c1ccc(cc1)OCCOc2ccccc2,Alfa Aesar
27666,7044.0,,,27667.0,http://chemspider.com/7044,182.8,4-chloro-3-nitrobenzoic acid,O=[N+]([O-])c1cc(ccc1Cl)C(=O)O,EPISuite-ChemSpider
12290,699330.0,,,12291.0,http://dx.doi.org/10.1021/ci0500132,75.0,4-[5-Chloro-3-(5-methyl-2-furyl)-1-benzofuran-2-yl]butan-2-one,Clc1ccc2oc(CCC(=O)C)c(c2c1)c1oc(C)cc1,Karthikeyan M.; Glen R.C.; Bender A. General melting point prediction based on a diverse compound dataset and artificial neural networks. J. Chem. Inf. Model.; 2005; 45(3); 581-3873
22078,2607.0,,,22079.0,http://www.srcinc.com/what-we-do/product.aspx?id=133,65.0,chlorambucil,O=C(O)CCCc1ccc(cc1)N(CCCl)CCCl,PHYSPROP
2949,66352.0,,,2950.0,http://www.alfa.com/en/GP100W.pgm?DSSTK=A18487,69.0,2-naphthyl acetate,CC(=O)Oc1ccc2ccccc2c1,Alfa Aesar
25423,2016968.0,,,25424.0,http://www.srcinc.com/what-we-do/product.aspx?id=133,78.0,"thiourea, n-(2-hydroxyethyl)-n'-2-propenyl-",OCCNC(S)=NCC=C,PHYSPROP
2326,9020609.0,,,2327.0,http://www.alfa.com/en/GP100W.pgm?DSSTK=H51879,188.0,2-chloro-4-fluoro-3-methylbenzoic acid,Cc1c(ccc(c1Cl)C(=O)O)F,Alfa Aesar
26753,21106032.0,,,26754.0,http://www.srcinc.com/what-we-do/product.aspx?id=133,-37.3,"1,4-dichlorobutane",ClCCCCCl,PHYSPROP
16940,30572.0,,,16941.0,http://www.drugbank.ca/drugs/DB02517,201.0,D-Glutamic Acid,OC(=O)CC[C@H](N)C(=O)O,DrugBank
19652,10358.0,,,19653.0,http://www.srcinc.com/what-we-do/product.aspx?id=133,143.0,"benzoic acid, 3-amino-4-hydroxy-, methyl ester",Nc1cc(ccc1O)C(=O)OC,PHYSPROP
17063,3608.0,,,17064.0,http://www.drugbank.ca/drugs/DB04711,307.0,Iodipamide,O=C(Nc1c(I)c(c(I)cc1I)C(=O)O)CCCCC(=O)Nc2c(I)c(C(=O)O)c(I)cc2I,DrugBank
6139,205674.0,,,6140.0,http://www.alfa.com/en/GP100W.pgm?DSSTK=L10951,241.0,6-hydroxy-2h-benzofuran-3-one,c1cc2c(cc1O)OCC2=O,Alfa Aesar
5836,1550010.0,,,5837.0,http://www.alfa.com/en/GP100W.pgm?DSSTK=A19852,300.0,5-chloro-2-mercaptobenzimidazole,c1cc2c(cc1Cl)nc([nH]2)S,Alfa Aesar
23194,61362.0,,,23195.0,http://www.srcinc.com/what-we-do/product.aspx?id=133,81.0,formamidine,N=CN,PHYSPROP
8864,2621342.0,,,8865.0,http://dx.doi.org/10.1021/ci020280x,280.0,moxestrol,COC3CC1(C)C(CCC1(O)C#C)C4CCc2cc(O)ccc2C34,Bergstrom C. A. S.; Norinder U.; Luthman K.; Artursson P. Molecular Descriptors Influencing Melting Point and Their Role in Classification of Solid Drugs. J. Chem. Inf. Comput. Sci.; (Article); 2003; 43(4); 1177-1311
15919,13848808.0,,,15920.0,http://msds.chem.ox.ac.uk/,-9.0,Methyl salicylate,Oc1ccccc1C(=O)OC,academic website
3391,239052.0,,,3392.0,http://www.alfa.com/en/GP100W.pgm?DSSTK=B22413,110.0,"3',5'-dibromo-2'-hydroxyacetophenone",CC(=O)c1cc(cc(c1O)Br)Br,Alfa Aesar
22840,55131.0,,,22841.0,http://www.srcinc.com/what-we-do/product.aspx?id=133,-34.8,"octanoic acid, pentyl ester",O=C(CCCCCCC)OCCCCC,PHYSPROP
26626,13873693.0,,,26627.0,http://www.srcinc.com/what-we-do/product.aspx?id=133,-2.0,hexachloroacetone,ClC(Cl)(Cl)C(=O)C(Cl)(Cl)Cl,PHYSPROP
6154,69121.0,,,6155.0,http://www.alfa.com/en/GP100W.pgm?DSSTK=L19074,92.0,6-methoxyindole,COc1ccc2cc[nH]c2c1,Alfa Aesar
9569,4645754.0,,,9570.0,http://dx.doi.org/10.1021/ci0500132,360.0,"(2E)-4-nitro-2-quinolin-2(1H)-ylidene-1H-indene-1,3(2H)-dione",O=[N+]([O-])c1cccc2c1C(=O)C(=C1Nc3ccccc3C=C1)C2=O,Karthikeyan M.; Glen R.C.; Bender A. General melting point prediction based on a diverse compound dataset and artificial neural networks. J. Chem. Inf. Model.; 2005; 45(3); 581-1152
21311,6099.0,,,21312.0,http://www.srcinc.com/what-we-do/product.aspx?id=133,-160.5,vinylfluoride,C=CF,PHYSPROP
19315,11309.0,,,19316.0,http://www.srcinc.com/what-we-do/product.aspx?id=133,131.0,martius yellow,[O-][N+](=O)c1cc([N+]([O-])=O)c(O)c2ccccc12,PHYSPROP
24565,90519.0,,,24566.0,http://www.srcinc.com/what-we-do/product.aspx?id=133,40.0,"1,3-cyclopentanediol, trans-",OC1CCC(O)C1,PHYSPROP
20011,8941.0,,,20012.0,http://www.srcinc.com/what-we-do/product.aspx?id=133,60.0,crufomate,Clc1cc(ccc1OP(=O)(NC)OC)C(C)(C)C,PHYSPROP
13136,10765.0,,,13137.0,http://www.amazon.com/dp/B002IYRJWI,-168.0,3-methyl-1-butene,C=CC(C)C,American Petroleum Institute. Research Project 44; Selected Values of Properties of Hydrocarbons and Related Compounds. Texas A & M University; College Station; TX; 1973.
6680,394562.0,,,6681.0,http://www.alfa.com/en/GP100W.pgm?DSSTK=L03362,-76.0,crotonaldehyde,C/C=C/C=O,Alfa Aesar
24369,82706.0,,,24370.0,http://www.srcinc.com/what-we-do/product.aspx?id=133,156.0,ethidimuron,CN(c1nnc(s1)S(=O)(=O)CC)C(=O)NC,PHYSPROP
1358,69682.0,,,1359.0,http://www.alfa.com/en/GP100W.pgm?DSSTK=A17201,250.0,"2,4,6-tri(2-pyridyl)-1,3,5-triazine",c1ccnc(c1)c2nc(nc(n2)c3ccccn3)c4ccccn4,Alfa Aesar
22888,56150.0,,,22889.0,http://www.srcinc.com/what-we-do/product.aspx?id=133,137.0,"methanol, (1,3,5-triazine-2,4,6-triyltrinitrilo)",OCN(CO)c1nc(nc(n1)N(CO)CO)N(CO)CO,PHYSPROP
27255,21186763.0,,,27256.0,http://scripts.iucr.org/cgi-bin/paper?cf1078,127.0,"(3aS,5aR,8R,8aS)-4,5,5a,6,7,8-Hexahydro-1,8-methanocyclopenta[c]pentalen-3a(1H)-ylacetic acid",O=C(O)C[C@]13C=C[C@@H]4C[C@H]2CC[C@H](CC1)[C@@]234,IUCr
17873,19747.0,,,17874.0,http://www.srcinc.com/what-we-do/product.aspx?id=133,17.9,1-chlorohexadecane,CCCCCCCCCCCCCCCCCl,PHYSPROP
16170,11132.0,,,16171.0,http://msds.chem.ox.ac.uk/,24.0,Tridecan-2-one,CC(=O)CCCCCCCCCCC,academic website
21140,6373.0,,,21141.0,http://www.srcinc.com/what-we-do/product.aspx?id=133,147.9,"benzene, 1,1'-sulfonylbis 4-chloro-",O=S(=O)(c1ccc(Cl)cc1)c2ccc(Cl)cc2,PHYSPROP
3763,2054166.0,,,3764.0,http://www.alfa.com/en/GP100W.pgm?DSSTK=B23049,97.0,3-chloro-2-fluoro-6-(trifluoromethyl)benzoic acid,c1cc(c(c(c1C(F)(F)F)C(=O)O)F)Cl,Alfa Aesar
26800,21106366.0,,,26801.0,http://www.srcinc.com/what-we-do/product.aspx?id=133,-15.0,1-phenyl-2-propanone,O=C(C)Cc1ccccc1,PHYSPROP
27709,2928.0,,,27710.0,http://dx.doi.org/10.1016/j.chemosphere.2013.10.095,110.0,"4,4'-DDT",C1=CC(=CC=C1C(C2=CC=C(C=C2)Cl)C(Cl)(Cl)Cl)Cl,Abraham M.H. and Acree Jr. W.E. The solubility of liquid and solid compounds in dry octan-1-ol. Chemosphere (2013)
6849,12437.0,,,6850.0,http://www.alfa.com/en/GP100W.pgm?DSSTK=44000,-70.0,diethyl phosphite,CCOP(O)OCC,Alfa Aesar
12992,5899.0,,,12993.0,http://dx.doi.org/10.1021/ci0500132,142.0,carbaryl,O=C(Oc1cccc2ccccc12)NC,Karthikeyan M.; Glen R.C.; Bender A. General melting point prediction based on a diverse compound dataset and artificial neural networks. J. Chem. Inf. Model.; 2005; 45(3); 581-4575
20689,7236.0,,,20690.0,http://www.srcinc.com/what-we-do/product.aspx?id=133,90.0,cyclohexanone oxime,ON=C1/CCCCC1,PHYSPROP
24434,83584.0,,,24435.0,http://www.srcinc.com/what-we-do/product.aspx?id=133,136.0,"1,3,5-trichloro-2,4,6-trihydroxybenzene",Clc1c(O)c(Cl)c(O)c(Cl)c1O,PHYSPROP
12090,2029269.0,,,12091.0,http://dx.doi.org/10.1021/ci0500132,206.0,"6-(4-methoxyphenyl)-3-(3-nitrophenyl)-5,6-dihydro[1,2,4]triazolo[3,4-b][1,3,4]thiadiazole",S1c2[nH0][nH0]c([nH0]2NC1c1ccc(OC)cc1)c1cccc([N+](=O)[O-])c1,Karthikeyan M.; Glen R.C.; Bender A. General melting point prediction based on a diverse compound dataset and artificial neural networks. J. Chem. Inf. Model.; 2005; 45(3); 581-3673
18608,13743.0,,,18609.0,http://www.srcinc.com/what-we-do/product.aspx?id=133,161.0,"benzamide, 3,5-dichloro-n-(3,4-dichlorophenyl)-2",Clc2ccc(NC(=O)c1cc(Cl)cc(Cl)c1O)cc2Cl,PHYSPROP
27154,21174674.0,,,27155.0,http://scripts.iucr.org/cgi-bin/paper?ci6288,114.35,"(17beta)-17-Ethynyl-3,17-dimethoxyestra-1,3,5(10)-triene",O(c1cc4c(cc1)[C@H]3CC[C@]2([C@@H](CC[C@]2(C#C)OC)[C@@H]3CC4)C)C,IUCr
3210,110088.0,,,3211.0,http://www.alfa.com/en/GP100W.pgm?DSSTK=L11564,82.0,"3,3'-dimethoxybenzil",COc1cccc(c1)C(=O)C(=O)c2cccc(c2)OC,Alfa Aesar
20867,6897.0,,,20868.0,http://www.srcinc.com/what-we-do/product.aspx?id=133,-34.0,ethyl benzoate,O=C(OCC)c1ccccc1,PHYSPROP
8538,73716.0,,,8539.0,http://www.alfa.com/en/GP100W.pgm?DSSTK=A13401,167.0,thiosalicylic acid,c1ccc(c(c1)C(=O)S)O,Alfa Aesar
12254,802623.0,,,12255.0,http://dx.doi.org/10.1021/ci0500132,88.0,(3Z)-5-Isobutyl-3-[(5-methyl-2-furyl)methylene]furan-2(3H)-one,O=C1OC(=CC1=Cc1oc(C)cc1)CC(C)C,Karthikeyan M.; Glen R.C.; Bender A. General melting point prediction based on a diverse compound dataset and artificial neural networks. J. Chem. Inf. Model.; 2005; 45(3); 581-3837
15777,6084.0,x,clearly out of range JCB,15778.0,http://msds.chem.ox.ac.uk/,-172.0,Ethane,CC,academic website
12941,10397.0,,,12942.0,http://dx.doi.org/10.1021/ci0500132,78.0,"4,4'-Dimethylbibenzyl",Cc1ccc(cc1)CCc1ccc(C)cc1,Karthikeyan M.; Glen R.C.; Bender A. General melting point prediction based on a diverse compound dataset and artificial neural networks. J. Chem. Inf. Model.; 2005; 45(3); 581-4524
15674,10046.0,,,15675.0,http://msds.chem.ox.ac.uk/,146.0,Cyanic iodide,IC#N,academic website
16461,25082.0,,,16462.0,http://www.drugbank.ca/drugs/DB00397,192.0,Phenylpropanolamine,O[C@@H](c1ccccc1)[C@@H](C)N,DrugBank
20416,7797.0,,,20417.0,http://www.srcinc.com/what-we-do/product.aspx?id=133,148.0,"acetic acid, 2,2'-oxybis-",O=C(O)COCC(=O)O,PHYSPROP
21684,4444.0,,,21685.0,http://www.srcinc.com/what-we-do/product.aspx?id=133,130.0,ouabain octahydrate,O=C1C=C(CO1)C3CCC4(O)C2CCC5(O)CC(CC(O)C5(CO)C2C(O)CC34C)OC6OC(C)C(O)C(O)C6O,PHYSPROP
19989,9043.0,,,19990.0,http://www.srcinc.com/what-we-do/product.aspx?id=133,85.0,mexacarbate,O=C(Oc1cc(C)c(c(C)c1)N(C)C)NC,PHYSPROP
25641,4477828.0,,,25642.0,http://www.srcinc.com/what-we-do/product.aspx?id=133,118.0,lumisterol,CC(C)C(C)/C=C/C(C)C1CCC2C3=CC=C4CC(O)CCC4(C)C3CCC12C,PHYSPROP
22981,59489.0,,,22982.0,http://www.srcinc.com/what-we-do/product.aspx?id=133,97.5,"cyclotetrasilazane, 2,2,4,4,6,6,8,8-octamethyl-",C[Si]1(C)N[Si](C)(C)N[Si](C)(C)N[Si](C)(C)N1,PHYSPROP
13130,11807.0,,,13131.0,http://www.amazon.com/dp/B002IYRJWI,-109.0,2-pentyne,CC#CCC,American Petroleum Institute. Research Project 44; Selected Values of Properties of Hydrocarbons and Related Compounds. Texas A & M University; College Station; TX; 1973.
4581,16838.0,,,4582.0,http://www.alfa.com/en/GP100W.pgm?DSSTK=B23152,178.0,4-amino-3-methylphenol,Cc1cc(ccc1N)O,Alfa Aesar
11882,2029907.0,,,11883.0,http://dx.doi.org/10.1021/ci0500132,211.0,"3,3,3-trifluoro-N-(4-methoxybiphenyl-3-yl)-2-(trifluoromethyl)propanamide",FC(F)(F)C(C(=O)Nc1cc(ccc1OC)c1ccccc1)C(F)(F)F,Karthikeyan M.; Glen R.C.; Bender A. General melting point prediction based on a diverse compound dataset and artificial neural networks. J. Chem. Inf. Model.; 2005; 45(3); 581-3465
18114,16661.0,,,18115.0,http://www.srcinc.com/what-we-do/product.aspx?id=133,-70.0,s-amylbenzene,CC(CCC)c1ccccc1,PHYSPROP
348,70826.0,,,349.0,http://www.alfa.com/en/GP100W.pgm?DSSTK=A10932,62.0,1-benzyl-4-hydroxypiperidine,c1ccc(cc1)CN2CCC(CC2)O,Alfa Aesar
12258,800204.0,,,12259.0,http://dx.doi.org/10.1021/ci0500132,170.0,"(4Z)-4-{[5-(2-Methoxyphenyl)-2-furyl]methylene}-2-phenyl-1,3-oxazol-5(4H)-one",O=C1OC(=NC1=Cc1oc(cc1)c1ccccc1OC)c1ccccc1,Karthikeyan M.; Glen R.C.; Bender A. General melting point prediction based on a diverse compound dataset and artificial neural networks. J. Chem. Inf. Model.; 2005; 45(3); 581-3841
10020,4305439.0,,,10021.0,http://dx.doi.org/10.1021/ci0500132,238.0,3-ethynyl-3-hydroxy-5-methylandrostan-17-one,O=C1CCC2C3CCC4(C)CC(O)(C#C)CCC4(C)C3CCC12C,Karthikeyan M.; Glen R.C.; Bender A. General melting point prediction based on a diverse compound dataset and artificial neural networks. J. Chem. Inf. Model.; 2005; 45(3); 581-1603
19784,9929.0,,,19785.0,http://www.srcinc.com/what-we-do/product.aspx?id=133,171.1,"benzoic acid, 3,5-dimethyl-",Cc1cc(C)cc(c1)C(O)=O,PHYSPROP
24387,82790.0,,,24388.0,http://www.srcinc.com/what-we-do/product.aspx?id=133,51.0,anilofos,Clc1ccc(cc1)N(C(C)C)C(=O)CSP(=S)(OC)OC,PHYSPROP
11155,2032862.0,,,11156.0,http://dx.doi.org/10.1021/ci0500132,261.0,"6-methyl-2-oxo-4-phenyl-1,2,3,4-tetrahydropyrimidine-5-carboxamide",O=C1NC(C)=C(C(=O)N)C(N1)c1ccccc1,Karthikeyan M.; Glen R.C.; Bender A. General melting point prediction based on a diverse compound dataset and artificial neural networks. J. Chem. Inf. Model.; 2005; 45(3); 581-2738
21045,6584.0,,,21046.0,http://www.srcinc.com/what-we-do/product.aspx?id=133,32.0,"naphthalene, 1-(chloromethyl)-",ClCc2cccc1ccccc12,PHYSPROP
13154,9646.0,,,13155.0,http://www.amazon.com/dp/B002IYRJWI,-17.0,"2,2-dimethylpropane",CC(C)(C)C,American Petroleum Institute. Research Project 44; Selected Values of Properties of Hydrocarbons and Related Compounds. Texas A & M University; College Station; TX; 1973.
12167,1701794.0,,,12168.0,http://dx.doi.org/10.1021/ci0500132,181.0,"3,3,3-trifluoro-N-(3-methylpyridin-2-yl)-2-(trifluoromethyl)propanamide",FC(F)(F)C(C(=O)Nc1[nH0]cccc1C)C(F)(F)F,Karthikeyan M.; Glen R.C.; Bender A. General melting point prediction based on a diverse compound dataset and artificial neural networks. J. Chem. Inf. Model.; 2005; 45(3); 581-3750
5368,1224783.0,,,5369.0,http://www.alfa.com/en/GP100W.pgm?DSSTK=H51753,305.0,4-methyl-2-(4-pyridyl)thiazole-5-carboxylic acid,Cc1c(sc(n1)c2ccncc2)C(=O)O,Alfa Aesar
10998,2033810.0,,,10999.0,http://dx.doi.org/10.1021/ci0500132,112.0,"1-ethyl-4-phenyl-1,2,3,4-tetrahydronaphthalen-1-ol",OC1(CCC(c2ccccc2)c2ccccc21)CC,Karthikeyan M.; Glen R.C.; Bender A. General melting point prediction based on a diverse compound dataset and artificial neural networks. J. Chem. Inf. Model.; 2005; 45(3); 581-2581
3562,106264.0,,,3563.0,http://www.alfa.com/en/GP100W.pgm?DSSTK=A13867,38.0,"3-acetyl-2,5-dichlorothiophene",CC(=O)c1cc(sc1Cl)Cl,Alfa Aesar
19899,9506.0,,,19900.0,http://www.srcinc.com/what-we-do/product.aspx?id=133,-84.0,"1,1,2-trifluoroethane",FCC(F)F,PHYSPROP
1814,13262.0,,,1815.0,http://www.alfa.com/en/GP100W.pgm?DSSTK=A12799,134.0,"2,6-dimethyl-4-pyrone",Cc1cc(=O)cc(o1)C,Alfa Aesar
27756,2157.0,,,27757.0,http://dx.doi.org/10.1080/10629360701430124,135.0,acetylsalicylic acid,CC(=O)Oc1ccccc1C(=O)O,RAEVSKY OA; PERLOVICH GL and SCHAPER K-J. Physicochemical properties/descriptors governing the solubility and partitioning of chemicals in water-solvent-gas systems. Part 2. Solubility in 1-octanol. SAR and QSAR in Environmental Research Vol. 18 Nos. 5–6 July–September 2007 543–578
17114,6229.0,,,17115.0,http://dx.doi.org/10.1021/ci700307p,125.5,butobarbitone (butethal),O=C1NC(=O)NC(=O)C1(CCCC)CC,Hughes LD; Palmer DS; Nigsch F and Mitchell JBO. 2008 Why are some properties more difficult to predict than others? A study of QSPR models of solubility; melting point and LogP. J. Chem. Inf. Model. 2008. 48 (1). pp 220?262
2152,14325008.0,,,2153.0,http://www.alfa.com/en/GP100W.pgm?DSSTK=L19856,61.0,2-bromo-4-pyridinemethanol,c1cnc(cc1CO)Br,Alfa Aesar
15268,6675.0,,,15269.0,http://msds.chem.ox.ac.uk/,162.5,2-Iodobenzoic acid,OC(=O)c1ccccc1I,academic website
20699,7218.0,,,20700.0,http://www.srcinc.com/what-we-do/product.aspx?id=133,-108.9,4-vinylcyclohexene,C=CC1CC=CCC1,PHYSPROP
18586,13903.0,,,18587.0,http://www.srcinc.com/what-we-do/product.aspx?id=133,200.0,"(1,1'-biphenyl)-4-ol, 3-amino-",Nc1cc(ccc1O)c2ccccc2,PHYSPROP
26353,10618564.0,,,26354.0,http://www.srcinc.com/what-we-do/product.aspx?id=133,195.1,fluocortin butyl,O=C(OCCCC)C(=O)C4C(C)CC3C2CC(F)C1=CC(=O)C=CC1(C)C2C(O)CC34C,PHYSPROP
24249,77680.0,,,24250.0,http://www.srcinc.com/what-we-do/product.aspx?id=133,102.4,tebuconazole,OC(Cn1cncn1)(CCc2ccc(Cl)cc2)C(C)(C)C,PHYSPROP
22664,37664.0,,,22665.0,http://www.srcinc.com/what-we-do/product.aspx?id=133,18.0,"1,4-dioxacyclohexadecane-5,16-dione",O=C1CCCCCCCCCCC(=O)OCCO1,PHYSPROP
21057,6554.0,,,21058.0,http://www.srcinc.com/what-we-do/product.aspx?id=133,127.0,2-benzoylbenzoic acid,OC(=O)c2ccccc2C(=O)c1ccccc1,PHYSPROP
9597,4645645.0,,,9598.0,http://dx.doi.org/10.1021/ci0500132,163.0,(3Z)-5-(2-methylpropyl)-3-{[5-(4-nitrophenyl)furan-2-yl]methylidene}furan-2(3H)-one,O=[N+]([O-])c1ccc(cc1)c1oc(cc1)C=C1C=C(OC1=O)CC(C)C,Karthikeyan M.; Glen R.C.; Bender A. General melting point prediction based on a diverse compound dataset and artificial neural networks. J. Chem. Inf. Model.; 2005; 45(3); 581-1180
2647,2019091.0,,,2648.0,http://www.alfa.com/en/GP100W.pgm?DSSTK=A14566,92.0,2-fluoro-6-phenoxybenzonitrile,c1ccc(cc1)Oc2cccc(c2C#N)F,Alfa Aesar
14349,13875259.0,,,14350.0,http://de.wikipedia.org/wiki/Beilsteins_Handbuch_der_Organischen_Chemie,-17.0,"4-bromo-1,3-dimethylbenzene",Cc1ccc(Br)c(C)c1,Beilstein F. K.; Beilsteins Handbuch der Organischen Chemie. Springer; Berlin; 1972.
23748,66392.0,,,23749.0,http://www.srcinc.com/what-we-do/product.aspx?id=133,31.0,3-tridecanone,CCC(=O)CCCCCCCCCC,PHYSPROP
9814,4644734.0,,,9815.0,http://dx.doi.org/10.1021/ci0500132,184.0,(2E)-3-(2-nitrophenyl)-2-(4-nitrophenyl)prop-2-enoic acid,O=[N+]([O-])c1ccc(cc1)C(=Cc1ccccc1[N+](=O)[O-])C(=O)O,Karthikeyan M.; Glen R.C.; Bender A. General melting point prediction based on a diverse compound dataset and artificial neural networks. J. Chem. Inf. Model.; 2005; 45(3); 581-1397
2803,1512.0,,,2804.0,http://www.alfa.com/en/GP100W.pgm?DSSTK=A15890,-100.0,2-mercaptoethanol,C(CS)O,Alfa Aesar
854,67902.0,,,855.0,http://www.alfa.com/en/GP100W.pgm?DSSTK=L03903,41.0,(trimethylsilyl)acetic acid,C[Si](C)(C)CC(=O)O,Alfa Aesar
9661,4645440.0,,,9662.0,http://dx.doi.org/10.1021/ci0500132,174.0,"(2Z)-2-[4-(4-Bromophenyl)-1,3-thiazol-2-yl]-3-(2-furyl)acrylonitrile",Brc1ccc(cc1)c1[nH0]c(sc1)C(C#N)=Cc1occc1,Karthikeyan M.; Glen R.C.; Bender A. General melting point prediction based on a diverse compound dataset and artificial neural networks. J. Chem. Inf. Model.; 2005; 45(3); 581-1244
26091,10440513.0,,,26092.0,http://www.srcinc.com/what-we-do/product.aspx?id=133,42.5,"acetamide, 2-(benzoyloxy)-n,n-bis(2-propenyl)-",C=CCN(CC=C)C(=O)COC(=O)c1ccccc1,PHYSPROP
2432,77822.0,,,2433.0,http://www.alfa.com/en/GP100W.pgm?DSSTK=L16949,185.0,2-chloro-6-nitrobenzamide,c1cc(c(c(c1)Cl)C(=O)N)[N+](=O)[O-],Alfa Aesar
19524,10777.0,,,19525.0,http://www.srcinc.com/what-we-do/product.aspx?id=133,-93.1,3-methyl-2-butanone,CC(C)C(C)=O,PHYSPROP
28177,8552.0,,,28178.0,http://pubs.rsc.org/en/Content/ArticleLanding/2011/CC/c0cc04485g,-1.9,hexanoic acid,C(CCCCC)(=O)O,Bica K; Shamshina J; Hough WL; MacFarlane DR; Rogers RD Chemical Communications; 47; 2267-2269 (2010)
16233,5210.0,,,16234.0,http://www.drugbank.ca/drugs/DB00871,120.5,Terbutaline,Oc1cc(cc(O)c1)C(O)CNC(C)(C)C,DrugBank
12664,140497.0,x,salt,12665.0,http://dx.doi.org/10.1021/ci0500132,202.0,"1,3,3-Trimethyl-2-[7-(1,3,3-trimethyl-1,3-dihydro-2H-indol-2-ylidene)hepta-1,3,5-trien-1-yl]-3H-indolium perchlorate",[Cl+3]([O-])([O-])([O-])[O-].[N+]=1(C)c2ccccc2C(C)(C)C=1C=CC=CC=CC=C1N(C)c2ccccc2C1(C)C,Karthikeyan M.; Glen R.C.; Bender A. General melting point prediction based on a diverse compound dataset and artificial neural networks. J. Chem. Inf. Model.; 2005; 45(3); 581-4247
26925,21159611.0,,,26926.0,http://www.srcinc.com/what-we-do/product.aspx?id=133,58.0,"glycine, n-phenyl-, ethyl ester",O=C(CNc1ccccc1)OCC,PHYSPROP
7318,773.0,,,7319.0,http://www.alfa.com/en/GP100W.pgm?DSSTK=A10221,90.0,imidazole,c1cnc[nH]1,Alfa Aesar
26802,21106442.0,,,26803.0,http://www.srcinc.com/what-we-do/product.aspx?id=133,-29.0,pentanedinitrile,N#CCCCC#N,PHYSPROP
16810,2387.0,,,16811.0,http://www.drugbank.ca/drugs/DB00241,138.5,Butalbital,O=C1NC(=O)NC(=O)C1(CC(C)C)CC=C,DrugBank
27655,13876.0,,,27656.0,http://chemspider.com/13876,200.0,4-aminophenylacetic acid,O=C(O)Cc1ccc(N)cc1,EPISuite-ChemSpider
2174,91525.0,,,2175.0,http://www.alfa.com/en/GP100W.pgm?DSSTK=B25331,104.0,2-bromo-5-nitroanisole,COc1cc(ccc1Br)[N+](=O)[O-],Alfa Aesar