,csid,donotuse,donotusebecause,key,link,mpC,name,smiles,source
25341,610579.0,,,25342.0,http://www.srcinc.com/what-we-do/product.aspx?id=133,172.5,alpha-(phenylmethylene)benzeneacetic acid,OC(=O)C(=C/c1ccccc1)c2ccccc2,PHYSPROP
1911,2054799.0,,,1912.0,http://www.alfa.com/en/GP100W.pgm?DSSTK=A15443,204.0,2-amino-3-bromo-5-methylbenzoic acid,Cc1cc(c(c(c1)Br)N)C(=O)O,Alfa Aesar
18003,17983.0,,,18004.0,http://www.srcinc.com/what-we-do/product.aspx?id=133,29.0,"4h-1-benzothiopyran-4-one, 2,3-dihydro-",O=C2CCSc1ccccc12,PHYSPROP
19144,11651.0,,,19145.0,http://www.srcinc.com/what-we-do/product.aspx?id=133,66.5,p-ethoxyphenol,CCOc1ccc(O)cc1,PHYSPROP
5906,158395.0,,,5907.0,http://www.alfa.com/en/GP100W.pgm?DSSTK=A10476,131.0,5-fluoro-2-methylbenzoic acid,Cc1ccc(cc1C(=O)O)F,Alfa Aesar
17704,22768.0,,,17705.0,http://www.srcinc.com/what-we-do/product.aspx?id=133,69.5,propionylpromazine,CCC(=O)c1cc2N(CCCN(C)C)c3ccccc3Sc2cc1,PHYSPROP
19736,10059.0,,,19737.0,http://www.srcinc.com/what-we-do/product.aspx?id=133,20.8,"octane, heptadecafluoro-8-iodo-",FC(F)(C(F)(F)C(F)(F)I)C(F)(F)C(F)(F)C(F)(F)C(F)(F)C(F)(F)F,PHYSPROP
25371,1013337.0,,,25372.0,http://www.srcinc.com/what-we-do/product.aspx?id=133,170.0,"4-thiazolidinone, 2-thioxo-",S=C1NC(=O)CS1,PHYSPROP
15760,12100.0,,,15761.0,http://msds.chem.ox.ac.uk/,70.0,Docosan-1-ol,CCCCCCCCCCCCCCCCCCCCCCO,academic website
19331,11273.0,,,19332.0,http://www.srcinc.com/what-we-do/product.aspx?id=133,156.0,9-phenylanthracene,c1cccc2cc4ccccc4c(c12)c3ccccc3,PHYSPROP
9163,10483324.0,,,9164.0,http://dx.doi.org/10.1021/ci0500132,131.0,"3,5-Di-tert-butyl-4-hydroxy-N,N'-diphenyl-benzamidine",Oc1c(cc(cc1C(C)(C)C)C(=Nc1ccccc1)Nc1ccccc1)C(C)(C)C,Karthikeyan M.; Glen R.C.; Bender A. General melting point prediction based on a diverse compound dataset and artificial neural networks. J. Chem. Inf. Model.; 2005; 45(3); 581-746
19347,11242.0,,,19348.0,http://www.srcinc.com/what-we-do/product.aspx?id=133,66.0,"2-propenoic acid, 2-chloro-",C=C(Cl)C(=O)O,PHYSPROP
27119,21182478.0,,,27120.0,http://scripts.iucr.org/cgi-bin/paper?sx1097,56.85,"(1R,5S)-2,2,5-Trimethyl-7-phenyl-6-oxa-7-azabicyclo[3.2.2]non-8-en-4-one",O=C3[C@]2(ON(c1ccccc1)[C@H](C=C2)C(C3)(C)C)C,IUCr
28419,4590.0,,,28420.0,http://www.aapspharmscitech.org/view.asp?art=pt070126,135.0,phenacetin,O=C(Nc1ccc(OCC)cc1)C,Sepassi K; Yalkowsky SH; AAPS PharmSciTech; 7(1); E1-E8 (2006)
14753,3189.0,,,14754.0,http://msds.chem.ox.ac.uk/,199.0,"(1-Hydroxyethane-1,1-diyl)bis(phosphonic acid)",CC(O)(P(O)(=O)O)P(=O)(O)O,academic website
931,69561.0,,,932.0,http://www.alfa.com/en/GP100W.pgm?DSSTK=L07631,234.0,2-(2-chlorophenyl)benzimidazole,c1ccc(c(c1)c2[nH]c3ccccc3n2)Cl,Alfa Aesar
21320,6087.0,,,21321.0,http://www.srcinc.com/what-we-do/product.aspx?id=133,-97.7,methyl chloride,CCl,PHYSPROP
10287,2036582.0,,,10288.0,http://dx.doi.org/10.1021/ci0500132,218.0,"N-(1-acetyl-1H-pyrazolo[3,4-b]pyridin-3-yl)acetamide",O=C(Nc1[nH0][nH0](c2[nH0]cccc21)C(=O)C)C,Karthikeyan M.; Glen R.C.; Bender A. General melting point prediction based on a diverse compound dataset and artificial neural networks. J. Chem. Inf. Model.; 2005; 45(3); 581-1870
19064,11843.0,,,19065.0,http://www.srcinc.com/what-we-do/product.aspx?id=133,-70.8,n-amyl acetate,CC(=O)OCCCCC,PHYSPROP
5624,669961.0,,,5625.0,http://www.alfa.com/en/GP100W.pgm?DSSTK=L15559,210.0,5-(4-fluorophenyl)-1h-tetrazole,c1cc(ccc1c2[nH]nnn2)F,Alfa Aesar
24073,71356.0,,,24074.0,http://www.srcinc.com/what-we-do/product.aspx?id=133,83.0,diosphenol,CC=1CCC(C(C)C)C(=O)C=1O,PHYSPROP
17592,25469.0,,,17593.0,http://www.srcinc.com/what-we-do/product.aspx?id=133,183.0,n-acetylpenicillamine,CC(C)(S)C(NC(=O)C)C(=O)O,PHYSPROP
4236,65753.0,,,4237.0,http://www.alfa.com/en/GP100W.pgm?DSSTK=L13780,9.0,4-(2-hydroxyethyl)pyridine,c1cnccc1CCO,Alfa Aesar
11879,2029910.0,,,11880.0,http://dx.doi.org/10.1021/ci0500132,121.0,"N-(2,4-dinitrophenyl)-3,3,3-trifluoro-2-(trifluoromethyl)propanamide",FC(F)(F)C(C(=O)Nc1ccc([N+](=O)[O-])cc1[N+](=O)[O-])C(F)(F)F,Karthikeyan M.; Glen R.C.; Bender A. General melting point prediction based on a diverse compound dataset and artificial neural networks. J. Chem. Inf. Model.; 2005; 45(3); 581-3462
17887,19513.0,,,17888.0,http://www.srcinc.com/what-we-do/product.aspx?id=133,38.0,3-phenyl-n-butyric acid,O=C(O)CC(C)c1ccccc1,PHYSPROP
2814,4269251.0,,,2815.0,http://www.alfa.com/en/GP100W.pgm?DSSTK=L16947,169.0,2-methoxy-4-methylbenzenesulfonamide,Cc1ccc(c(c1)OC)S(=O)(=O)N,Alfa Aesar
16826,4977.0,,,16827.0,http://www.drugbank.ca/drugs/DB01399,147.0,Salsalate,O=C(Oc1ccccc1C(=O)O)c2ccccc2O,DrugBank
7062,21242463.0,,,7063.0,http://www.alfa.com/en/GP100W.pgm?DSSTK=H27775,189.0,ethyl 2-hydroxy-6-methylpyridine-4-carboxylate,CCOC(=O)c1cc(nc(c1)O)C,Alfa Aesar
7989,81110.0,,,7990.0,http://www.alfa.com/en/GP100W.pgm?DSSTK=L08366,50.0,N-boc-L-methionine,CC(C)(C)OC(=O)N[C@@H](CCSC)C(=O)O,Alfa Aesar
14601,11891.0,,,14602.0,http://www.amazon.com/dp/B003XEQTLE,46.0,1-pentadecanol,CCCCCCCCCCCCCCCO,Aldrich Chemical Company; Aldrich Catalog-Handbook of Fine Chemicals; Milwaukee; WI; 1984.
17640,24133.0,,,17641.0,http://www.srcinc.com/what-we-do/product.aspx?id=133,64.5,1-methylbenzotriazole,Cn2nnc1ccccc12,PHYSPROP
4525,360681.0,,,4526.0,http://www.alfa.com/en/GP100W.pgm?DSSTK=B24891,123.0,4-acetyl-4-methylpimelic acid,CC(=O)C(C)(CCC(=O)O)CCC(=O)O,Alfa Aesar
9432,4825191.0,,,9433.0,http://dx.doi.org/10.1021/ci0500132,135.0,"(2E,2'E)-1,1'-benzene-1,3-diylbis[3-(4-methoxyphenyl)prop-2-en-1-one]",O=C(C=Cc1ccc(OC)cc1)c1cccc(c1)C(=O)C=Cc1ccc(OC)cc1,Karthikeyan M.; Glen R.C.; Bender A. General melting point prediction based on a diverse compound dataset and artificial neural networks. J. Chem. Inf. Model.; 2005; 45(3); 581-1015
6936,13623.0,,,6937.0,http://www.alfa.com/en/GP100W.pgm?DSSTK=L07697,37.0,di-n-decylamine,CCCCCCCCCCNCCCCCCCCCC,Alfa Aesar
18556,14202.0,,,18557.0,http://www.srcinc.com/what-we-do/product.aspx?id=133,98.0,isodecyloctylphthalate,O=C(OCCCCCCCC)c1ccccc1C(=O)OCCCCCCCC(C)C,PHYSPROP
26002,10438282.0,,,26003.0,http://www.srcinc.com/what-we-do/product.aspx?id=133,82.0,"5-ethyl-4-phenyl-1,2-dithiol-3-one",CCC=2SSC(=O)C=2c1ccccc1,PHYSPROP
25677,4510399.0,,,25678.0,http://www.srcinc.com/what-we-do/product.aspx?id=133,57.5,"heptanal, oxime",CCCCCCC=NO,PHYSPROP
7729,68325.0,,,7730.0,http://www.alfa.com/en/GP100W.pgm?DSSTK=L11941,42.0,mono-n-dodecyl phosphate,CCCCCCCCCCCCOP(=O)(O)O,Alfa Aesar
18181,16197.0,,,18182.0,http://www.srcinc.com/what-we-do/product.aspx?id=133,132.0,2-(2-hydroxy-5-methylphenyl)benzotriazole,Cc1cc(c(O)cc1)n2nc3ccccc3n2,PHYSPROP
17685,23083.0,,,17686.0,http://www.srcinc.com/what-we-do/product.aspx?id=133,87.3,isopropyl phenyl carbamate,CC(C)OC(=O)Nc1ccccc1,PHYSPROP
7024,6103.0,,,7025.0,http://www.alfa.com/en/GP100W.pgm?DSSTK=22585,-148.0,ethanethiol,CCS,Alfa Aesar
22599,35204.0,,,22600.0,http://www.srcinc.com/what-we-do/product.aspx?id=133,149.0,ticrynafen,O=C(c1ccc(OCC(=O)O)c(Cl)c1Cl)c2cccs2,PHYSPROP
13758,61765.0,,,13759.0,http://www.amazon.com/dp/B003XEQTLE,6.0,2-hydroxyacetophenone,O=C(CO)c1ccccc1,Aldrich Chemical Company; Aldrich Catalog-Handbook of Fine Chemicals; Milwaukee; WI; 1984.
1246,3089427.0,,,1247.0,http://www.alfa.com/en/GP100W.pgm?DSSTK=H26286,135.0,"2,3-dichloro-6-fluorobenzoic acid",c1cc(c(c(c1F)C(=O)O)Cl)Cl,Alfa Aesar
9991,4489007.0,,,9992.0,http://dx.doi.org/10.1021/ci0500132,223.0,"(2E)-3-(2-Chlorophenyl)-2-[4-(4-methoxyphenyl)-1,3-thiazol-2-yl]acrylonitrile",Clc1ccccc1C=C(C#N)c1scc([nH0]1)c1ccc(OC)cc1,Karthikeyan M.; Glen R.C.; Bender A. General melting point prediction based on a diverse compound dataset and artificial neural networks. J. Chem. Inf. Model.; 2005; 45(3); 581-1574
12785,65109.0,,,12786.0,http://dx.doi.org/10.1021/ci0500132,90.0,Butyvinal,O=C1NC(=O)C(C=C)(C(=O)N1)C(C)CCC,Karthikeyan M.; Glen R.C.; Bender A. General melting point prediction based on a diverse compound dataset and artificial neural networks. J. Chem. Inf. Model.; 2005; 45(3); 581-4368
12012,2029531.0,,,12013.0,http://dx.doi.org/10.1021/ci0500132,159.0,"5,10,13-trimethyltetradecahydrospiro[cyclopenta[a]phenanthrene-3,2'-[1,3]dioxolan]-17(2H)-one",O=C1CCC2C3CCC4(C)CC5(OCCO5)CCC4(C)C3CCC12C,Karthikeyan M.; Glen R.C.; Bender A. General melting point prediction based on a diverse compound dataset and artificial neural networks. J. Chem. Inf. Model.; 2005; 45(3); 581-3595
13795,10179239.0,,,13796.0,http://www.amazon.com/dp/B003XEQTLE,-43.0,cis-decahydronaphthalene,C1CC[C@@H]2CCCC[C@@H]2C1,Aldrich Chemical Company; Aldrich Catalog-Handbook of Fine Chemicals; Milwaukee; WI; 1984.
10801,2034157.0,,,10802.0,http://dx.doi.org/10.1021/ci0500132,228.0,"1,5-bis(chloromethyl)-2,6-dimethylnaphthalene",ClCc1c(C)ccc2c1ccc(C)c2CCl,Karthikeyan M.; Glen R.C.; Bender A. General melting point prediction based on a diverse compound dataset and artificial neural networks. J. Chem. Inf. Model.; 2005; 45(3); 581-2384
7344,6134.0,,,7345.0,http://www.alfa.com/en/GP100W.pgm?DSSTK=A13664,122.0,iodoform,C(I)(I)I,Alfa Aesar
21886,3322.0,x,only one value here while many cluster around 206C JCB,21887.0,http://www.srcinc.com/what-we-do/product.aspx?id=133,295.0,furosemide,NS(=O)(=O)c2cc(c(NCc1ccco1)cc2Cl)C(=O)O,PHYSPROP
24570,91600.0,,,24571.0,http://www.srcinc.com/what-we-do/product.aspx?id=133,97.7,"1,2,3,4-tetrahydro-naphthalene-2-carboxylic acid",O=C(O)C1Cc2ccccc2CC1,PHYSPROP
17538,27049.0,,,17539.0,http://www.srcinc.com/what-we-do/product.aspx?id=133,23.0,1-nonadecene,CCCCCCCCCCCCCCCCCC=C,PHYSPROP
3505,21106578.0,,,3506.0,http://www.alfa.com/en/GP100W.pgm?DSSTK=A10570,10.0,"3,5-dimethylaniline",Cc1cc(cc(c1)N)C,Alfa Aesar
22687,38763.0,,,22688.0,http://www.srcinc.com/what-we-do/product.aspx?id=133,70.0,furalaxyl,O=C(N(C(C)C(=O)OC)c1c(C)cccc1C)c2ccco2,PHYSPROP
5737,255845.0,,,5738.0,http://www.alfa.com/en/GP100W.pgm?DSSTK=B25365,30.0,"5-bromo-2,4-dichloropyrimidine",c1c(c(nc(n1)Cl)Cl)Br,Alfa Aesar
1138,531832.0,,,1139.0,http://www.alfa.com/en/GP100W.pgm?DSSTK=B23411,154.0,"2,2'-dimethoxybiphenyl",COc1ccccc1c2ccccc2OC,Alfa Aesar
6733,64676.0,,,6734.0,http://www.alfa.com/en/GP100W.pgm?DSSTK=A15696,12.0,cyclopentylacetic acid,C1CCC(C1)CC(=O)O,Alfa Aesar
9092,10484169.0,,,9093.0,http://dx.doi.org/10.1021/ci0500132,284.0,"3-{(4Z)-4-[2-(2,5-dichlorophenyl)hydrazinylidene]-5-oxo-4,5-dihydro-1H-pyrazol-3-yl}-4-hydroxy-1-methylquinolin-2(1H)-one",Clc1ccc(Cl)c(NN=C2C(=O)NN=C2C=2C(=O)N(C)c3ccccc3C=2O)c1,Karthikeyan M.; Glen R.C.; Bender A. General melting point prediction based on a diverse compound dataset and artificial neural networks. J. Chem. Inf. Model.; 2005; 45(3); 581-673
15143,10857.0,,,15144.0,http://msds.chem.ox.ac.uk/,56.0,"2,3-Dichlorophenol",Oc1cccc(Cl)c1Cl,academic website
711,17287.0,,,712.0,http://www.alfa.com/en/GP100W.pgm?DSSTK=L05138,-20.0,"1,2,4-butanetriol",C(CO)C(CO)O,Alfa Aesar
1449,1064943.0,,,1450.0,http://www.alfa.com/en/GP100W.pgm?DSSTK=A12591,44.0,"2,4-dichloro-6-methylaniline",Cc1cc(cc(c1N)Cl)Cl,Alfa Aesar
89,9148396.0,,,90.0,http://www.alfa.com/en/GP100W.pgm?DSSTK=L14302,129.0,"1-o-acetyl-2,3,5-tri-o-benzoyl-beta-D-ribofuranose",CC(=O)O[C@@H]1[C@H]([C@H]([C@@H](O1)COC(=O)c2ccccc2)OC(=O)c3ccccc3)OC(=O)c4ccccc4,Alfa Aesar
1866,71655.0,,,1867.0,http://www.alfa.com/en/GP100W.pgm?DSSTK=A14826,95.0,2-acetyl-5-bromothiophene,CC(=O)c1ccc(s1)Br,Alfa Aesar
17636,24247.0,,,17637.0,http://www.srcinc.com/what-we-do/product.aspx?id=133,51.0,pyrazophos,O=C(OCC)c1cn2nc(cc2nc1C)OP(=S)(OCC)OCC,PHYSPROP
451,70204.0,,,452.0,http://www.alfa.com/en/GP100W.pgm?DSSTK=H30286,65.0,"1,4-piperazinedipropionitrile",C1CN(CCN1CCC#N)CCC#N,Alfa Aesar
4557,69983.0,,,4558.0,http://www.alfa.com/en/GP100W.pgm?DSSTK=B23420,152.0,4-amino-2-chlorophenol,c1cc(c(cc1N)Cl)O,Alfa Aesar
3998,600088.0,,,3999.0,http://www.alfa.com/en/GP100W.pgm?DSSTK=H27750,175.0,3-hydroxy-5-methoxyflavone,COc1cccc2c1c(=O)c(c(o2)c3ccccc3)O,Alfa Aesar
19733,10077.0,,,19734.0,http://www.srcinc.com/what-we-do/product.aspx?id=133,222.0,2-methoxystrychnine,COc1cc2c(cc1)N5C(=O)CC4OCC=C3CN7CCC26C7CC3C4C56,PHYSPROP
14919,6478.0,,,14920.0,http://msds.chem.ox.ac.uk/,95.0,"1,2-Dihydroacenaphthylene",c1cc2cccc3CCc(c1)c23,academic website
11794,2030429.0,,,11795.0,http://dx.doi.org/10.1021/ci0500132,127.0,"5-(2-nitrophenyl)-3,4-diphenylisoxazole",O=[N+]([O-])c1ccccc1c1o[nH0]c(c2ccccc2)c1c1ccccc1,Karthikeyan M.; Glen R.C.; Bender A. General melting point prediction based on a diverse compound dataset and artificial neural networks. J. Chem. Inf. Model.; 2005; 45(3); 581-3377
3306,21168920.0,,,3307.0,http://www.alfa.com/en/GP100W.pgm?DSSTK=H31548,42.0,"3,4-difluoro-2-methylbenzonitrile",Cc1c(ccc(c1F)F)C#N,Alfa Aesar
8637,64159.0,,,8638.0,http://www.alfa.com/en/GP100W.pgm?DSSTK=L14382,68.0,trimellitic anhydride chloride,c1cc2c(cc1C(=O)Cl)C(=O)OC2=O,Alfa Aesar
12633,198522.0,,,12634.0,http://dx.doi.org/10.1021/ci0500132,168.0,2-(phenylacetyl)hydrazinecarboxamide,O=C(N)NN=C(O)Cc1ccccc1,Karthikeyan M.; Glen R.C.; Bender A. General melting point prediction based on a diverse compound dataset and artificial neural networks. J. Chem. Inf. Model.; 2005; 45(3); 581-4216
19320,11298.0,,,19321.0,http://www.srcinc.com/what-we-do/product.aspx?id=133,129.0,"benzene, hexaethyl-",CCc1c(CC)c(CC)c(CC)c(CC)c1CC,PHYSPROP
1022,38804.0,,,1023.0,http://www.alfa.com/en/GP100W.pgm?DSSTK=A13553,124.0,2-(methoxycarbonyl)benzenesulfonamide,COC(=O)c1ccccc1S(=O)(=O)N,Alfa Aesar
5875,9075.0,,,5876.0,http://www.alfa.com/en/GP100W.pgm?DSSTK=B23984,174.0,5-chlorosalicylic acid,c1cc(c(cc1Cl)C(=O)O)O,Alfa Aesar
1325,16036.0,,,1326.0,http://www.alfa.com/en/GP100W.pgm?DSSTK=B23313,105.0,"2,3-dimethylquinoxaline",Cc1c(nc2ccccc2n1)C,Alfa Aesar
28065,5554.0,,,28066.0,http://dx.doi.org/10.1080/10629360701430124,176.0,estradiol,C[C@]12CC[C@@H]3c4ccc(cc4CC[C@H]3[C@@H]1CC[C@@H]2O)O,RAEVSKY OA; PERLOVICH GL and SCHAPER K-J. Physicochemical properties/descriptors governing the solubility and partitioning of chemicals in water-solvent-gas systems. Part 2. Solubility in 1-octanol. SAR and QSAR in Environmental Research Vol. 18 Nos. 5–6 July–September 2007 543–578
5167,14507.0,,,5168.0,http://www.alfa.com/en/GP100W.pgm?DSSTK=A15561,26.0,4-fluorophenyl isothiocyanate,c1cc(ccc1N=C=S)F,Alfa Aesar
19415,11062.0,,,19416.0,http://www.srcinc.com/what-we-do/product.aspx?id=133,-33.3,"1,1-dimethyl cyclohexane",CC1(C)CCCCC1,PHYSPROP
3549,10437222.0,,,3550.0,http://www.alfa.com/en/GP100W.pgm?DSSTK=H26074,210.0,"3,6-dimethyl-4-hydroxy-2-pyrone",Cc1cc(c(c(=O)o1)C)O,Alfa Aesar
20568,7518.0,,,20569.0,http://www.srcinc.com/what-we-do/product.aspx?id=133,68.0,p-bromochlorobenzene,Clc1ccc(Br)cc1,PHYSPROP
26744,21106014.0,,,26745.0,http://www.srcinc.com/what-we-do/product.aspx?id=133,12.4,2-chlorobenzaldehyde,O=Cc1ccccc1Cl,PHYSPROP
27788,8111.0,,,27789.0,http://dx.doi.org/10.1080/10629360701430124,216.3,anthracene,c1ccc2cc3ccccc3cc2c1,RAEVSKY OA; PERLOVICH GL and SCHAPER K-J. Physicochemical properties/descriptors governing the solubility and partitioning of chemicals in water-solvent-gas systems. Part 2. Solubility in 1-octanol. SAR and QSAR in Environmental Research Vol. 18 Nos. 5–6 July–September 2007 543–578
24591,91926.0,,,24592.0,http://www.srcinc.com/what-we-do/product.aspx?id=133,144.5,7-dehydrositosterol,CC(C)C(CC)CCC(C)C1CCC2C3=CC=C4CC(O)CCC4(C)C3CCC12C,PHYSPROP
22451,390.0,,,22452.0,http://www.srcinc.com/what-we-do/product.aspx?id=133,139.5,"3-isoxazolidinone, 4-amino-, (+)-",NC1CONC1=O,PHYSPROP
24821,150420.0,,,24822.0,http://www.srcinc.com/what-we-do/product.aspx?id=133,-120.0,4-methyl-2-pentene,CC=CC(C)C,PHYSPROP
8535,2062095.0,,,8536.0,http://www.alfa.com/en/GP100W.pgm?DSSTK=L13114,122.0,thiophene-3-carboxaldoxime,c1cscc1C=NO,Alfa Aesar
17626,24387.0,,,17627.0,http://www.srcinc.com/what-we-do/product.aspx?id=133,-40.0,"2-propanol, 1-chloro-, phosphate (3:1)",ClCC(C)OP(=O)(OC(C)CCl)OC(C)CCl,PHYSPROP
11381,2031824.0,,,11382.0,http://dx.doi.org/10.1021/ci0500132,120.0,"5,7,7-trimethyl-4-(1-methylethyl)-3,6-dioxabicyclo[3.2.2]nonan-2-one",O=C1OC(C(C)C)C2(OC(C)(C)C1CC2)C,Karthikeyan M.; Glen R.C.; Bender A. General melting point prediction based on a diverse compound dataset and artificial neural networks. J. Chem. Inf. Model.; 2005; 45(3); 581-2964
7008,5576.0,,,7009.0,http://www.alfa.com/en/GP100W.pgm?DSSTK=36404,99.0,D-sorbitol,C([C@H]([C@H]([C@@H]([C@H](CO)O)O)O)O)O,Alfa Aesar
17122,10248513.0,,,17123.0,http://dx.doi.org/10.1021/ci700307p,236.0,chlordiazepoxide,Clc1ccc2N=C(C[N+]([O-])=C(c2c1)c3ccccc3)NC,Hughes LD; Palmer DS; Nigsch F and Mitchell JBO. 2008 Why are some properties more difficult to predict than others? A study of QSPR models of solubility; melting point and LogP. J. Chem. Inf. Model. 2008. 48 (1). pp 220?270
13476,11185.0,,,13477.0,http://www.amazon.com/dp/B002IYRJWI,101.0,"2,2,3,3-tetramethylbutane",CC(C)(C)C(C)(C)C,American Petroleum Institute. Research Project 44; Selected Values of Properties of Hydrocarbons and Related Compounds. Texas A & M University; College Station; TX; 1973.
14662,66773.0,,,14663.0,http://www.amazon.com/dp/B003XEQTLE,46.0,11-bromo-1-undecanol,BrCCCCCCCCCCCO,Aldrich Chemical Company; Aldrich Catalog-Handbook of Fine Chemicals; Milwaukee; WI; 1984.
20756,7125.0,,,20757.0,http://www.srcinc.com/what-we-do/product.aspx?id=133,164.5,"benzoic acid, 4-(tert-butyl)-",CC(C)(C)c1ccc(cc1)C(=O)O,PHYSPROP
21647,4600.0,,,21648.0,http://www.srcinc.com/what-we-do/product.aspx?id=133,262.5,phenolphthalein,Oc1ccc(cc1)C3(OC(=O)c2ccccc23)c4ccc(O)cc4,PHYSPROP
22549,33418.0,,,22550.0,http://www.srcinc.com/what-we-do/product.aspx?id=133,67.0,"1h-imidazole-5-carboxylic acid, 1-(1-phenylethyl",CC(c1ccccc1)n2cncc2C(=O)OCC,PHYSPROP
8114,349.0,,,8115.0,http://www.alfa.com/en/GP100W.pgm?DSSTK=A13181,-57.0,N-octane,CCCCCCCC,Alfa Aesar
7047,79839.0,,,7048.0,http://www.alfa.com/en/GP100W.pgm?DSSTK=L02457,87.0,"ethyl 2-amino-4,5-dimethoxybenzoate",CCOC(=O)c1cc(c(cc1N)OC)OC,Alfa Aesar
11705,2030620.0,,,11706.0,http://dx.doi.org/10.1021/ci0500132,109.0,"(E,E)-1,1'-(2-methylbenzene-1,4-diyl)bis(phenyldiazene)",N(=Nc1ccc(N=Nc2ccccc2)c(C)c1)c1ccccc1,Karthikeyan M.; Glen R.C.; Bender A. General melting point prediction based on a diverse compound dataset and artificial neural networks. J. Chem. Inf. Model.; 2005; 45(3); 581-3288
25299,556559.0,,,25300.0,http://www.srcinc.com/what-we-do/product.aspx?id=133,30.5,"2,4-hexadien-1-ol",CC=CC=CCO,PHYSPROP
24316,78755.0,,,24317.0,http://www.srcinc.com/what-we-do/product.aspx?id=133,58.0,"phenol, 2,4-dichloro-3-methyl-",Clc1ccc(O)c(Cl)c1C,PHYSPROP
12787,65061.0,,,12788.0,http://dx.doi.org/10.1021/ci0500132,114.0,Bamipine,N1(C)CCC(N(Cc2ccccc2)c2ccccc2)CC1,Karthikeyan M.; Glen R.C.; Bender A. General melting point prediction based on a diverse compound dataset and artificial neural networks. J. Chem. Inf. Model.; 2005; 45(3); 581-4370
20233,8159.0,,,20234.0,http://www.srcinc.com/what-we-do/product.aspx?id=133,-78.0,trimethyl phosphite,COP(OC)OC,PHYSPROP
16752,3944.0,,,16753.0,http://www.drugbank.ca/drugs/DB00816,100.0,Orciprenaline,Oc1cc(cc(O)c1)C(O)CNC(C)C,DrugBank
25495,2745027.0,,,25496.0,http://www.srcinc.com/what-we-do/product.aspx?id=133,175.0,"1,2-dihydroxy-4-nitrobenzene",Oc1ccc(cc1O)[N+]([O-])=O,PHYSPROP
3544,60662.0,,,3545.0,http://www.alfa.com/en/GP100W.pgm?DSSTK=A14795,68.0,"3,6-dichloropyridazine",c1cc(nnc1Cl)Cl,Alfa Aesar
8449,10646966.0,,,8450.0,http://www.alfa.com/en/GP100W.pgm?DSSTK=B22039,21.0,"tert-butyl 2,2,2-trichloroacetimidate",CC(C)(C)OC(=N)C(Cl)(Cl)Cl,Alfa Aesar
12064,2029317.0,,,12065.0,http://dx.doi.org/10.1021/ci0500132,106.0,"3-{[bis(2-chloroethyl)amino]methyl}-5-({4-[bis(2-chloroethyl)amino]phenyl}methylidene)-2-thioxo-1,3-thiazolidin-4-one",ClCCN(CN1C(=S)SC(=Cc2ccc(N(CCCl)CCCl)cc2)C1=O)CCCl,Karthikeyan M.; Glen R.C.; Bender A. General melting point prediction based on a diverse compound dataset and artificial neural networks. J. Chem. Inf. Model.; 2005; 45(3); 581-3647