,csid,donotuse,donotusebecause,key,link,mpC,name,smiles,source
25627,4447527.0,,,25628.0,http://www.srcinc.com/what-we-do/product.aspx?id=133,97.5,stirofos,Clc1cc(C(=CCl)OP(=O)(OC)OC)c(Cl)cc1Cl,PHYSPROP
12577,241542.0,,,12578.0,http://dx.doi.org/10.1021/ci0500132,138.0,17-oxoandrostan-3-yl acetate,O=C1CCC2C3CCC4CC(OC(=O)C)CCC4(C)C3CCC12C,Karthikeyan M.; Glen R.C.; Bender A. General melting point prediction based on a diverse compound dataset and artificial neural networks. J. Chem. Inf. Model.; 2005; 45(3); 581-4160
4445,67855.0,,,4446.0,http://www.alfa.com/en/GP100W.pgm?DSSTK=L01515,82.0,"4,5,6,7-tetrahydro-1h-indazole",c1c2c([nH]n1)CCCC2,Alfa Aesar
1059,109689.0,,,1060.0,http://www.alfa.com/en/GP100W.pgm?DSSTK=B24591,-40.0,2-(trifluoromethyl)benzaldehyde,c1ccc(c(c1)C=O)C(F)(F)F,Alfa Aesar
2568,7353.0,,,2569.0,http://www.alfa.com/en/GP100W.pgm?DSSTK=B23257,-45.0,2-ethylhexyl acetate,CCCCC(CC)COC(=O)C,Alfa Aesar
3797,2054133.0,,,3798.0,http://www.alfa.com/en/GP100W.pgm?DSSTK=H26114,57.0,3-chloro-4-fluorophenylacetic acid,c1cc(c(cc1CC(=O)O)Cl)F,Alfa Aesar
12772,67197.0,,,12773.0,http://dx.doi.org/10.1021/ci0500132,85.0,[3-(Benzyloxy)-4-methoxyphenyl]methanol,OCc1ccc(OC)c(OCc2ccccc2)c1,Karthikeyan M.; Glen R.C.; Bender A. General melting point prediction based on a diverse compound dataset and artificial neural networks. J. Chem. Inf. Model.; 2005; 45(3); 581-4355
19517,10797.0,,,19518.0,http://www.srcinc.com/what-we-do/product.aspx?id=133,-69.0,"2,4-dimethyl-3-pentanone",CC(C)C(=O)C(C)C,PHYSPROP
2304,206218.0,,,2305.0,http://www.alfa.com/en/GP100W.pgm?DSSTK=H51734,73.0,2-chloro-3-methylquinoxaline,Cc1c(nc2ccccc2n1)Cl,Alfa Aesar
24770,122145.0,,,24771.0,http://www.srcinc.com/what-we-do/product.aspx?id=133,113.5,"benzoic acid, 4-(decyloxy)-",O=C(O)c1ccc(OCCCCCCCCCC)cc1,PHYSPROP
18908,12286.0,,,18909.0,http://www.srcinc.com/what-we-do/product.aspx?id=133,40.0,octachlorocyclopentene,ClC1(Cl)C(Cl)=C(Cl)C(Cl)(Cl)C1(Cl)Cl,PHYSPROP
354,63087.0,,,355.0,http://www.alfa.com/en/GP100W.pgm?DSSTK=L12378,49.0,1-benzoylpiperidine,c1ccc(cc1)C(=O)N2CCCCC2,Alfa Aesar
24684,108631.0,,,24685.0,http://www.srcinc.com/what-we-do/product.aspx?id=133,7.08,"2-propanol, 1-(1-methyl-2-propoxyethoxy)-",OC(C)COC(C)COCCC,PHYSPROP
28257,7176.0,,,28258.0,http://dx.doi.org/10.1080/10629360701430124,131.0,methyl 4-hydroxybenzoate,COC(=O)c1ccc(cc1)O,RAEVSKY OA; PERLOVICH GL and SCHAPER K-J. Physicochemical properties/descriptors governing the solubility and partitioning of chemicals in water-solvent-gas systems. Part 2. Solubility in 1-octanol. SAR and QSAR in Environmental Research Vol. 18 Nos. 5–6 July–September 2007 543–578
3420,17704.0,,,3421.0,http://www.alfa.com/en/GP100W.pgm?DSSTK=A12923,268.0,"3,5-dichloro-4-hydroxybenzoic acid",c1c(cc(c(c1Cl)O)Cl)C(=O)O,Alfa Aesar
19622,10428.0,,,19623.0,http://www.srcinc.com/what-we-do/product.aspx?id=133,-73.2,pentyl butyrate,O=C(CCC)OCCCCC,PHYSPROP
16491,58240.0,,,16492.0,http://www.drugbank.ca/drugs/DB00424,141.0,Hyoscyamine,CN3C1CCC3CC(C1)OC(=O)[C@H](CO)c2ccccc2,DrugBank
20820,6993.0,,,20821.0,http://www.srcinc.com/what-we-do/product.aspx?id=133,76.0,"4-chloro-1,2-benzenediamine",Nc1cc(Cl)ccc1N,PHYSPROP
17466,29005.0,,,17467.0,http://www.srcinc.com/what-we-do/product.aspx?id=133,-67.0,ethyl hexanoate,O=C(CCCCC)OCC,PHYSPROP
21299,6118.0,,,21300.0,http://www.srcinc.com/what-we-do/product.aspx?id=133,-89.0,2-bromopropane,BrC(C)C,PHYSPROP
19827,9805.0,,,19828.0,http://www.srcinc.com/what-we-do/product.aspx?id=133,101.0,"phenanthrene, 1-methyl-7-(1-methylethyl)-",CC(C)c2cc3ccc1c(cccc1C)c3cc2,PHYSPROP
888,497324.0,,,889.0,http://www.alfa.com/en/GP100W.pgm?DSSTK=H32992,137.0,(4-imidazolyl)acetonitrile,c1c(nc[nH]1)CC#N,Alfa Aesar
24587,91910.0,,,24588.0,http://www.srcinc.com/what-we-do/product.aspx?id=133,106.0,3-chloro-d-camphor,CC2(C)C1CCC2(C)C(=O)C1Cl,PHYSPROP
598,78616.0,,,599.0,http://www.alfa.com/en/GP100W.pgm?DSSTK=L03698,146.0,"1,3-diacetylindole",CC(=O)c1cn(c2c1cccc2)C(=O)C,Alfa Aesar
18144,16424.0,,,18145.0,http://www.srcinc.com/what-we-do/product.aspx?id=133,105.0,chlorbicyclen,ClC2(Cl)C1(Cl)C(Cl)=C(Cl)C2(Cl)C(CCl)C1CCl,PHYSPROP
7038,10255538.0,,,7039.0,http://www.alfa.com/en/GP100W.pgm?DSSTK=H32275,98.0,ethyl 1-phenyl-1h-pyrazole-4-carboxylate,CCOC(=O)c1cnn(c1)c2ccccc2,Alfa Aesar
22794,50743.0,,,22795.0,http://www.srcinc.com/what-we-do/product.aspx?id=133,207.0,"1,6-dibromodibenzo-p-dioxin",Brc2cccc1Oc3c(Oc12)cccc3Br,PHYSPROP
28627,21105845.0,,,28628.0,http://usefulchem.wikispaces.com/exp173,138.0,Ugi product 173G (UC),COc1cc(cc(OC)c1)C(C(=O)NCCCC)N(Cc2ccccc2)C(=O)C#Cc3ccccc3,UsefulChem
13034,3544.0,,,13035.0,http://dx.doi.org/10.1021/ci0500132,75.0,Ibumetin,O=C(O)C(C)c1ccc(cc1)CC(C)C,Karthikeyan M.; Glen R.C.; Bender A. General melting point prediction based on a diverse compound dataset and artificial neural networks. J. Chem. Inf. Model.; 2005; 45(3); 581-4617
16575,4925517.0,,,16576.0,http://www.drugbank.ca/drugs/DB00641,136.5,Simvastatin,CC(C)(CC)C(=O)O[C@H]3C[C@@H](C)C=C2C=C[C@H](C)[C@H](CCC1C[C@@H](O)CC(=O)O1)[C@H]23,DrugBank
8581,18534748.0,,,8582.0,http://www.alfa.com/en/GP100W.pgm?DSSTK=B21716,54.0,trans-4-n-pentylcyclohexanecarboxylic acid,CCCCC[C@H]1CC[C@@H](CC1)C(=O)O,Alfa Aesar
11338,2031983.0,,,11339.0,http://dx.doi.org/10.1021/ci0500132,212.0,"1,2,2,3-tetramethyl-N-phenyl-N-[(1,2,2,3-tetramethylcyclopentyl)carbonyl]cyclopentanecarboxamide",O=C(N(c1ccccc1)C(=O)C1(C)CCC(C)C1(C)C)C1(C)CCC(C)C1(C)C,Karthikeyan M.; Glen R.C.; Bender A. General melting point prediction based on a diverse compound dataset and artificial neural networks. J. Chem. Inf. Model.; 2005; 45(3); 581-2921
21113,6431.0,,,21114.0,http://www.srcinc.com/what-we-do/product.aspx?id=133,259.0,purpurin,O=C2c1ccccc1C(=O)c3c2c(O)cc(O)c3O,PHYSPROP
26151,10442170.0,,,26152.0,http://www.srcinc.com/what-we-do/product.aspx?id=133,97.5,"benzoic acid, 2-(acetyloxy)-, 2-(4-morpholinyl)-",O=C(COC(=O)c1ccccc1OC(C)=O)N2CCOCC2,PHYSPROP
1694,12650.0,,,1695.0,http://www.alfa.com/en/GP100W.pgm?DSSTK=L04278,105.0,"2,6-diaminotoluene",Cc1c(cccc1N)N,Alfa Aesar
10310,2036524.0,,,10311.0,http://dx.doi.org/10.1021/ci0500132,254.0,"2-(1H-pyrazolo[3,4-b]pyridin-3-yl)-1H-isoindole-1,3(2H)-dione",O=C1N(C(=O)c2ccccc21)c1[nH0][nH]c2[nH0]cccc21,Karthikeyan M.; Glen R.C.; Bender A. General melting point prediction based on a diverse compound dataset and artificial neural networks. J. Chem. Inf. Model.; 2005; 45(3); 581-1893
27858,4444129.0,,,27859.0,http://www.aapspharmscitech.org/view.asp?art=pt070126,180.0,beta-carotene,CC2(C)CCCC(\C)=C2\C=C\C(\C)=C\C=C\C(\C)=C\C=C\C=C(/C)\C=C\C=C(/C)\C=C\C1=C(/C)CCCC1(C)C,Sepassi K; Yalkowsky SH; AAPS PharmSciTech; 7(1); E1-E8 (2006)
27749,7132.0,,,27750.0,http://dx.doi.org/10.1016/j.memsci.2007.01.031,20.0,acetophenone,CC(=O)c1ccccc1,Bengston G; Panek D; Fritsch D Journal of Membrane Science; 293(1-2); 29-35 (2007)
13095,238.0,,,13096.0,http://dx.doi.org/10.1021/ci0500132,122.0,Benzoic Acid,O=C(O)c1ccccc1,Karthikeyan M.; Glen R.C.; Bender A. General melting point prediction based on a diverse compound dataset and artificial neural networks. J. Chem. Inf. Model.; 2005; 45(3); 581-4678
6138,73165.0,,,6139.0,http://www.alfa.com/en/GP100W.pgm?DSSTK=A10960,199.0,"6-hydroxy-2,4-dimethylpyrimidine",Cc1cc(nc(n1)C)O,Alfa Aesar
1141,18717.0,,,1142.0,http://www.alfa.com/en/GP100W.pgm?DSSTK=L11545,-5.0,"2,2-dimethyl-3-pentanol",CCC(C(C)(C)C)O,Alfa Aesar
2944,6856.0,,,2945.0,http://www.alfa.com/en/GP100W.pgm?DSSTK=L05102,184.0,2-naphthoic acid,c1ccc2cc(ccc2c1)C(=O)O,Alfa Aesar
18079,16951.0,,,18080.0,http://www.srcinc.com/what-we-do/product.aspx?id=133,38.5,"methyl 2,5-dichlorobenzoate",Clc1ccc(Cl)cc1C(=O)OC,PHYSPROP
11884,2029905.0,,,11885.0,http://dx.doi.org/10.1021/ci0500132,172.0,"N-(4-butoxyphenyl)-3,3,3-trifluoro-2-(trifluoromethyl)propanamide",FC(F)(F)C(C(=O)Nc1ccc(OCCCC)cc1)C(F)(F)F,Karthikeyan M.; Glen R.C.; Bender A. General melting point prediction based on a diverse compound dataset and artificial neural networks. J. Chem. Inf. Model.; 2005; 45(3); 581-3467
26879,21111805.0,,,26880.0,http://www.srcinc.com/what-we-do/product.aspx?id=133,-82.7,"benzene, 1-chloro-2-ethyl-",CCc1ccccc1Cl,PHYSPROP
12974,7215.0,,,12975.0,http://dx.doi.org/10.1021/ci0500132,182.0,100-32-3,S(Sc1ccc([N+](=O)[O-])cc1)c1ccc([N+](=O)[O-])cc1,Karthikeyan M.; Glen R.C.; Bender A. General melting point prediction based on a diverse compound dataset and artificial neural networks. J. Chem. Inf. Model.; 2005; 45(3); 581-4557
26651,13875381.0,,,26652.0,http://www.srcinc.com/what-we-do/product.aspx?id=133,-35.0,"benzene, 2-chloro-1,3-dimethyl-",Cc1cccc(C)c1Cl,PHYSPROP
13294,12444.0,,,13295.0,http://www.amazon.com/dp/B002IYRJWI,-137.0,"4,4-dimethyl-1-pentene",CC(C)(C)CC=C,American Petroleum Institute. Research Project 44; Selected Values of Properties of Hydrocarbons and Related Compounds. Texas A & M University; College Station; TX; 1973.
21896,3267.0,,,21897.0,http://www.srcinc.com/what-we-do/product.aspx?id=133,297.0,fluoromethalone,CC(=O)C4(O)CCC3C2CC(C)C1=CC(=O)C=CC1(C)C2(F)C(O)CC34C,PHYSPROP
11529,2031238.0,,,11530.0,http://dx.doi.org/10.1021/ci0500132,272.0,"N,N'-[(E)-diazene-1,2-diyldibenzene-3,1-diyl]diacetamide",O=C(Nc1cccc(N=Nc2cccc(NC(=O)C)c2)c1)C,Karthikeyan M.; Glen R.C.; Bender A. General melting point prediction based on a diverse compound dataset and artificial neural networks. J. Chem. Inf. Model.; 2005; 45(3); 581-3112
25535,3659700.0,,,25536.0,http://www.srcinc.com/what-we-do/product.aspx?id=133,189.5,exemestane,O=C3C=C4C(=C)CC2C(CCC1(C)C2CCC1=O)C4(C)C=C3,PHYSPROP
19240,11452.0,,,19241.0,http://www.srcinc.com/what-we-do/product.aspx?id=133,132.5,7-nitroquinoline,[O-][N+](=O)c1cc2ncccc2cc1,PHYSPROP
19670,10292.0,,,19671.0,http://www.srcinc.com/what-we-do/product.aspx?id=133,159.0,acetylsalicylsalicylic acid,O=C(C)Oc2ccccc2C(=O)Oc1ccccc1C(=O)O,PHYSPROP
14179,12836.0,,,14180.0,http://de.wikipedia.org/wiki/Beilsteins_Handbuch_der_Organischen_Chemie,9.0,4-chlorophenyl_acetate,Clc1ccc(OC(C)=O)cc1,Beilstein F. K.; Beilsteins Handbuch der Organischen Chemie. Springer; Berlin; 1972.
5646,13667.0,,,5647.0,http://www.alfa.com/en/GP100W.pgm?DSSTK=L10164,62.0,"5,6,7,8-tetrahydro-2-naphthol",c1cc2c(cc1O)CCCC2,Alfa Aesar
1987,13594575.0,,,1988.0,http://www.alfa.com/en/GP100W.pgm?DSSTK=B25726,149.0,2-amino-5-chlorobenzenesulfonamide,c1cc(c(cc1Cl)S(=O)(=O)N)N,Alfa Aesar
7037,125418.0,,,7038.0,http://www.alfa.com/en/GP100W.pgm?DSSTK=B25351,77.0,ethyl 1h-pyrazole-4-carboxylate,CCOC(=O)c1c[nH]nc1,Alfa Aesar
13657,122558.0,,,13658.0,http://www.amazon.com/dp/088318205X,-104.0,5-methyl-1-heptanol,CC(CC)CCCCO,Wilhoit R. C. Physical and Thermodynamic Properties of Aliphatic Alcohols. (Supplement to Journal of Physical and Chemical Reference Data; Vol 2; No. 1.); American Chemical Society; Washington; 1973.
7374,6309.0,,,7375.0,http://www.alfa.com/en/GP100W.pgm?DSSTK=L14619,-146.0,isoprene,CC(=C)C=C,Alfa Aesar
209,63019.0,,,210.0,http://www.alfa.com/en/GP100W.pgm?DSSTK=L02977,-19.0,1-dodecyne,CCCCCCCCCCC#C,Alfa Aesar
3637,72534.0,,,3638.0,http://www.alfa.com/en/GP100W.pgm?DSSTK=L07847,93.0,3-aminobenzyl alcohol,c1cc(cc(c1)N)CO,Alfa Aesar
2484,60139.0,,,2485.0,http://www.alfa.com/en/GP100W.pgm?DSSTK=H32362,46.0,2-chloro-n-methylacetamide,CNC(=O)CCl,Alfa Aesar
18615,13700.0,,,18616.0,http://www.srcinc.com/what-we-do/product.aspx?id=133,-5.0,"naphthalene, 2-butyl-",CCCCc1ccc2ccccc2c1,PHYSPROP
23603,63755.0,,,23604.0,http://www.srcinc.com/what-we-do/product.aspx?id=133,87.0,pentafluorophenyl sulfide,Fc2c(Sc1c(F)c(F)c(F)c(F)c1F)c(F)c(F)c(F)c2F,PHYSPROP
7696,6393.0,,,7697.0,http://www.alfa.com/en/GP100W.pgm?DSSTK=A10881,26.0,methyl p-toluenesulfonate,Cc1ccc(cc1)S(=O)(=O)OC,Alfa Aesar
17717,22439.0,,,17718.0,http://www.srcinc.com/what-we-do/product.aspx?id=133,7.0,2-methylcyclohexanol (cis),C[C@H]1CCCC[C@H]1O,PHYSPROP
18845,12600.0,,,18846.0,http://www.srcinc.com/what-we-do/product.aspx?id=133,-25.2,"3-pentanone, 2,2,4,4-tetramethyl-",CC(C)(C)C(=O)C(C)(C)C,PHYSPROP
5742,2016166.0,,,5743.0,http://www.alfa.com/en/GP100W.pgm?DSSTK=B24862,70.0,5-bromo-2-chloropyridine,c1cc(ncc1Br)Cl,Alfa Aesar
15933,11332993.0,,,15934.0,http://msds.chem.ox.ac.uk/,65.0,N-(3-Methylphenyl)acetamide,O=C(C)Nc1cc(C)ccc1,academic website
21736,4019.0,,,21737.0,http://www.srcinc.com/what-we-do/product.aspx?id=133,195.0,methysergide,CCC(CO)NC(=O)C4C=C1C(Cc2cn(C)c3cccc1c23)N(C)C4,PHYSPROP
7634,85609.0,,,7635.0,http://www.alfa.com/en/GP100W.pgm?DSSTK=A15226,80.0,methyl 5-nitro-2-furoate,COC(=O)c1ccc(o1)[N+](=O)[O-],Alfa Aesar
10856,2034059.0,,,10857.0,http://dx.doi.org/10.1021/ci0500132,141.0,N-{[(2-nitrobenzyl)oxy]carbonyl}phenylalanine,O=[N+]([O-])c1ccccc1COC(=O)NC(Cc1ccccc1)C(=O)O,Karthikeyan M.; Glen R.C.; Bender A. General melting point prediction based on a diverse compound dataset and artificial neural networks. J. Chem. Inf. Model.; 2005; 45(3); 581-2439
10369,2036309.0,,,10370.0,http://dx.doi.org/10.1021/ci0500132,268.0,"N,N'-(3,3'-dimethylbiphenyl-4,4'-diyl)diformamide",O=CNc1ccc(cc1C)c1ccc(NC=O)c(C)c1,Karthikeyan M.; Glen R.C.; Bender A. General melting point prediction based on a diverse compound dataset and artificial neural networks. J. Chem. Inf. Model.; 2005; 45(3); 581-1952
25346,627838.0,,,25347.0,http://www.srcinc.com/what-we-do/product.aspx?id=133,199.0,"2(3h)-benzothiazolethione, 6-ethoxy-",CCOc1ccc2NC(=S)Sc2c1,PHYSPROP
18881,12446.0,,,18882.0,http://www.srcinc.com/what-we-do/product.aspx?id=133,-135.7,2-methyl-1-pentene,C=C(C)CCC,PHYSPROP
22362,831.0,,,22363.0,http://www.srcinc.com/what-we-do/product.aspx?id=133,90.5,d-xylose,OC(C=O)C(O)C(O)CO,PHYSPROP
24533,88007.0,,,24534.0,http://www.srcinc.com/what-we-do/product.aspx?id=133,138.5,n-acetylaspartate,O=C(C)NC(CC(=O)O)C(=O)O,PHYSPROP
12466,445276.0,,,12467.0,http://dx.doi.org/10.1021/ci0500132,120.0,"3,5-dinitro-N-[2-(pyridin-2-yl)ethyl]benzamide",O=[N+]([O-])c1cc([N+](=O)[O-])cc(c1)C(=O)NCCc1[nH0]cccc1,Karthikeyan M.; Glen R.C.; Bender A. General melting point prediction based on a diverse compound dataset and artificial neural networks. J. Chem. Inf. Model.; 2005; 45(3); 581-4049
13306,4512638.0,,,13307.0,http://www.amazon.com/dp/B002IYRJWI,-126.0,4-methyl-trans-2-hexene,CC=CC(C)CC,American Petroleum Institute. Research Project 44; Selected Values of Properties of Hydrocarbons and Related Compounds. Texas A & M University; College Station; TX; 1973.
22778,48457.0,,,22779.0,http://www.srcinc.com/what-we-do/product.aspx?id=133,65.0,fluoroglycofenethyl,Clc2cc(ccc2Oc1cc(C(=O)OCC(=O)OCC)c(cc1)[N+]([O-])=O)C(F)(F)F,PHYSPROP
16269,4859.0,,,16270.0,http://www.drugbank.ca/drugs/DB00481,145.0,Raloxifene,Oc1ccc(cc1)c3sc2cc(O)ccc2c3C(=O)c5ccc(OCCN4CCCCC4)cc5,DrugBank
20842,6949.0,,,20843.0,http://www.srcinc.com/what-we-do/product.aspx?id=133,-1.8,indene,c1cccc2CC=Cc12,PHYSPROP
16841,4317.0,,,16842.0,http://www.drugbank.ca/drugs/DB04820,151.6,Nialamide,O=C(NNCCC(=O)NCc1ccccc1)c2ccncc2,DrugBank
5990,1180751.0,,,5991.0,http://www.alfa.com/en/GP100W.pgm?DSSTK=L14628,147.0,5-methylisoxazole-4-carboxylic acid,Cc1c(cno1)C(=O)O,Alfa Aesar
7479,2037316.0,,,7480.0,http://www.alfa.com/en/GP100W.pgm?DSSTK=H32755,128.0,"methyl 2-amino-4,5,6,7-tetrahydrobenzo[b]thiophene-3-carboxylate",COC(=O)c1c2c(sc1N)CCCC2,Alfa Aesar
4972,63504.0,,,4973.0,http://www.alfa.com/en/GP100W.pgm?DSSTK=A14531,36.0,4'-chlorobutyrophenone,CCCC(=O)c1ccc(cc1)Cl,Alfa Aesar
21782,3827.0,,,21783.0,http://www.srcinc.com/what-we-do/product.aspx?id=133,109.5,loxapine,CN1CCN(CC1)C3=Nc4ccccc4Oc2ccc(Cl)cc23,PHYSPROP
102,19669.0,,,103.0,http://www.alfa.com/en/GP100W.pgm?DSSTK=L01347,61.0,1-naphthalenemethanol,c1ccc2c(c1)cccc2CO,Alfa Aesar
8934,4938943.0,,,8935.0,http://dx.doi.org/10.1021/ci020280x,149.0,dimecroticacid,COc1ccc(C(C)=CC(O)=O)c(OC)c1,Bergstrom C. A. S.; Norinder U.; Luthman K.; Artursson P. Molecular Descriptors Influencing Melting Point and Their Role in Classification of Solid Drugs. J. Chem. Inf. Comput. Sci.; (Article); 2003; 43(4); 1177-1381
25930,9951982.0,,,25931.0,http://www.srcinc.com/what-we-do/product.aspx?id=133,95.0,xibornol,CC3(C)C1CCC3(C)C(C1)c2cc(C)c(C)cc2O,PHYSPROP
24232,77127.0,,,24233.0,http://www.srcinc.com/what-we-do/product.aspx?id=133,28.0,2-thiophenesulfonyl chloride,ClS(=O)(=O)c1cccs1,PHYSPROP
27388,4510679.0,,,27389.0,http://tinyurl.com/77qo4cz,120.5,"(2E)-3-Benzo[1,3]dioxol-5-yl-1-phenyl-2-propen-1-one",O1C2=C(OC1)C=C(C=C2)\C=C\C(=O)C3=CC=CC=C3,Agricultural and Biological Chemistry
8486,61150.0,,,8487.0,http://www.alfa.com/en/GP100W.pgm?DSSTK=B20462,115.0,tetrafluorosuccinic acid,C(=O)(C(C(C(=O)O)(F)F)(F)F)O,Alfa Aesar
26827,21106527.0,,,26828.0,http://www.srcinc.com/what-we-do/product.aspx?id=133,20.0,pentafluor-benzaldehyd,Fc1c(C=O)c(F)c(F)c(F)c1F,PHYSPROP
26966,21171387.0,,,26967.0,http://www.srcinc.com/what-we-do/product.aspx?id=133,24.5,2-methoxy-benzonitrile,COc1ccccc1C#N,PHYSPROP
12840,59048.0,,,12841.0,http://dx.doi.org/10.1021/ci0500132,106.0,2-Benzhydryl-1-piperidineethanol,OCCN1CCCCC1C(c1ccccc1)c1ccccc1,Karthikeyan M.; Glen R.C.; Bender A. General melting point prediction based on a diverse compound dataset and artificial neural networks. J. Chem. Inf. Model.; 2005; 45(3); 581-4423
12371,555172.0,,,12372.0,http://dx.doi.org/10.1021/ci0500132,98.0,"1-benzoyl-2,3-dimethyl-1H-indole",O=C([nH0]1c2ccccc2c(C)c1C)c1ccccc1,Karthikeyan M.; Glen R.C.; Bender A. General melting point prediction based on a diverse compound dataset and artificial neural networks. J. Chem. Inf. Model.; 2005; 45(3); 581-3954
26647,13875357.0,,,26648.0,http://www.srcinc.com/what-we-do/product.aspx?id=133,-0.2,"benzene, 4-bromo-1,2-dimethyl-",Cc1cc(Br)ccc1C,PHYSPROP
19985,9071.0,,,19986.0,http://www.srcinc.com/what-we-do/product.aspx?id=133,-26.0,"2,4-dichloro(trifluoromethyl)benzene",FC(F)(F)c1ccc(Cl)cc1Cl,PHYSPROP
11871,2029929.0,,,11872.0,http://dx.doi.org/10.1021/ci0500132,119.0,"nonanamide, 2,2,3,3,4,4,5,5,6,6,7,7,8,8,9,9,9-heptadecafluoro-N-(4-nitrophenyl)-",FC(F)(F)C(F)(F)C(F)(F)C(F)(F)C(F)(F)C(F)(F)C(F)(F)C(F)(F)C(=O)Nc1ccc([N+](=O)[O-])cc1,Karthikeyan M.; Glen R.C.; Bender A. General melting point prediction based on a diverse compound dataset and artificial neural networks. J. Chem. Inf. Model.; 2005; 45(3); 581-3454
26009,10438440.0,,,26010.0,http://www.srcinc.com/what-we-do/product.aspx?id=133,131.5,"2,3-naphthalenediol, 6-ethoxy-",CCOc1cc2cc(O)c(O)cc2cc1,PHYSPROP
2510,61668.0,,,2511.0,http://www.alfa.com/en/GP100W.pgm?DSSTK=A18617,50.0,2-coumaranone,c1ccc2c(c1)CC(=O)O2,Alfa Aesar
7329,9838.0,,,7330.0,http://www.alfa.com/en/GP100W.pgm?DSSTK=A15330,197.0,indole-3-carboxaldehyde,c1ccc2c(c1)c(c[nH]2)C=O,Alfa Aesar
5989,69397.0,,,5990.0,http://www.alfa.com/en/GP100W.pgm?DSSTK=L17577,172.0,5-methylisoxazole-3-carboxylic acid,Cc1cc(no1)C(=O)O,Alfa Aesar
17250,128566.0,,,17251.0,http://dx.doi.org/10.1021/ci700307p,221.0,proline,O=C(O)[C@@H]1CCCN1,Hughes LD; Palmer DS; Nigsch F and Mitchell JBO. 2008 Why are some properties more difficult to predict than others? A study of QSPR models of solubility; melting point and LogP. J. Chem. Inf. Model. 2008. 48 (1). pp 220?398
23816,67190.0,,,23817.0,http://www.srcinc.com/what-we-do/product.aspx?id=133,265.0,"2(1h)-pyrimidinone, tetrahydro-",O=C1NCCCN1,PHYSPROP
27454,11974.0,,,27455.0,http://dx.doi.org/10.1080/10629360701430124,182.0,"1,2,4,5-tetrabromobenzene",Brc1c(Br)cc(Br)c(Br)c1,RAEVSKY OA; PERLOVICH GL and SCHAPER K-J. Physicochemical properties/descriptors governing the solubility and partitioning of chemicals in water-solvent-gas systems. Part 2. Solubility in 1-octanol. SAR and QSAR in Environmental Research Vol. 18 Nos. 5–6 July–September 2007 543–578
19695,10243.0,,,19696.0,http://www.srcinc.com/what-we-do/product.aspx?id=133,235.0,pentachloroaniline,Clc1c(N)c(Cl)c(Cl)c(Cl)c1Cl,PHYSPROP
22909,56442.0,,,22910.0,http://www.srcinc.com/what-we-do/product.aspx?id=133,-105.5,trans-2-butene,CC=CC,PHYSPROP
7120,26338.0,,,7121.0,http://www.alfa.com/en/GP100W.pgm?DSSTK=B21832,37.0,ethyl 4-hydroxyphenylacetate,CCOC(=O)Cc1ccc(cc1)O,Alfa Aesar