,csid,donotuse,donotusebecause,key,link,mpC,name,smiles,source
18300,15526.0,,,18301.0,http://www.srcinc.com/what-we-do/product.aspx?id=133,39.0,5-bromopentanoic acid,BrCCCCC(=O)O,PHYSPROP
11335,2031988.0,,,11336.0,http://dx.doi.org/10.1021/ci0500132,80.0,"bis[(1,2,2,3-tetramethylcyclopentyl)methyl] benzene-1,2-dicarboxylate",O=C(OCC1(C)CCC(C)C1(C)C)c1ccccc1C(=O)OCC1(C)CCC(C)C1(C)C,Karthikeyan M.; Glen R.C.; Bender A. General melting point prediction based on a diverse compound dataset and artificial neural networks. J. Chem. Inf. Model.; 2005; 45(3); 581-2918
14206,6033.0,,,14207.0,http://www.amazon.com/dp/B003XEQTLE,139.0,p-toluenesulfonamide,Cc1ccc(cc1)S(=O)(N)=O,Aldrich Chemical Company; Aldrich Catalog-Handbook of Fine Chemicals; Milwaukee; WI; 1984.
17848,20151.0,,,17849.0,http://www.srcinc.com/what-we-do/product.aspx?id=133,52.5,3-chloro-4-methoxyaniline,COc1ccc(N)cc1Cl,PHYSPROP
9498,4760136.0,,,9499.0,http://dx.doi.org/10.1021/ci0500132,192.0,N-{3-nitro-4-[(E)-2-phenylethenyl]phenyl}acetamide,O=[N+]([O-])c1cc(NC(=O)C)ccc1C=Cc1ccccc1,Karthikeyan M.; Glen R.C.; Bender A. General melting point prediction based on a diverse compound dataset and artificial neural networks. J. Chem. Inf. Model.; 2005; 45(3); 581-1081
19964,9190.0,,,19965.0,http://www.srcinc.com/what-we-do/product.aspx?id=133,153.0,glymidine,O=S(=O)(Nc1ncc(cn1)OCCOC)c2ccccc2,PHYSPROP
26432,13835294.0,,,26433.0,http://www.srcinc.com/what-we-do/product.aspx?id=133,286.0,anthraquinone,O=C2c1ccccc1C(=O)c3ccccc23,PHYSPROP
8995,5302.0,,,8996.0,http://dx.doi.org/10.1021/ci020280x,170.0,tolazamide,Cc1ccc(cc1)S(=O)(=O)NC(=O)NN2CCCCCC2,Bergstrom C. A. S.; Norinder U.; Luthman K.; Artursson P. Molecular Descriptors Influencing Melting Point and Their Role in Classification of Solid Drugs. J. Chem. Inf. Comput. Sci.; (Article); 2003; 43(4); 1177-1442
13192,12979.0,,,13193.0,http://www.amazon.com/dp/B002IYRJWI,-103.0,3-hexyne,CCC#CCC,American Petroleum Institute. Research Project 44; Selected Values of Properties of Hydrocarbons and Related Compounds. Texas A & M University; College Station; TX; 1973.
1868,87183.0,,,1869.0,http://www.alfa.com/en/GP100W.pgm?DSSTK=L17852,128.0,2-acetyl-5-iodothiophene,CC(=O)c1ccc(s1)I,Alfa Aesar
24955,225686.0,,,24956.0,http://www.srcinc.com/what-we-do/product.aspx?id=133,164.5,parthenin,O=C2C=CC3(O)C(C)CCC1C(=C)C(=O)OC1C23C,PHYSPROP
23006,59682.0,,,23007.0,http://www.srcinc.com/what-we-do/product.aspx?id=133,32.0,tridecan-3-ol,CCC(O)CCCCCCCCCC,PHYSPROP
1665,13839128.0,,,1666.0,http://www.alfa.com/en/GP100W.pgm?DSSTK=A17755,76.0,"2,5-dimethylphenol",Cc1ccc(c(c1)O)C,Alfa Aesar
15285,6137.0,,,15286.0,http://msds.chem.ox.ac.uk/,-65.0,2-Methylaziridine,CC1CN1,academic website
18677,13465.0,,,18678.0,http://www.srcinc.com/what-we-do/product.aspx?id=133,15.9,p-chlorostyrene,C=Cc1ccc(Cl)cc1,PHYSPROP
23581,63504.0,,,23582.0,http://www.srcinc.com/what-we-do/product.aspx?id=133,19.5,(4-chlorophenyl) propyl ketone,O=C(CCC)c1ccc(Cl)cc1,PHYSPROP
25318,558888.0,,,25319.0,http://www.srcinc.com/what-we-do/product.aspx?id=133,4.0,"2-butene-1,4-diol (cis)",OCC=C/CO,PHYSPROP
16541,1999.0,,,16542.0,http://www.drugbank.ca/drugs/DB01001,157.5,Salbutamol,OCc1cc(ccc1O)C(O)CNC(C)(C)C,DrugBank
1873,36022.0,,,1874.0,http://www.alfa.com/en/GP100W.pgm?DSSTK=B21139,93.0,2-acetyl-7-methoxybenzo[b]furan,CC(=O)c1cc2cccc(c2o1)OC,Alfa Aesar
13033,3561.0,,,13034.0,http://dx.doi.org/10.1021/ci0500132,114.0,Validex,Oc1ccc(cc1)C(O)C(N1CCC(CC1)Cc1ccccc1)C,Karthikeyan M.; Glen R.C.; Bender A. General melting point prediction based on a diverse compound dataset and artificial neural networks. J. Chem. Inf. Model.; 2005; 45(3); 581-4616
3861,75999.0,,,3862.0,http://www.alfa.com/en/GP100W.pgm?DSSTK=A15376,108.0,3-cyano-2-phenoxypyridine,c1ccc(cc1)Oc2c(cccn2)C#N,Alfa Aesar
10423,2036185.0,,,10424.0,http://dx.doi.org/10.1021/ci0500132,81.0,"N-benzyl-2-cyano-3,3-bis(methylsulfanyl)prop-2-enamide",S(C)C(SC)=C(C#N)C(=O)NCc1ccccc1,Karthikeyan M.; Glen R.C.; Bender A. General melting point prediction based on a diverse compound dataset and artificial neural networks. J. Chem. Inf. Model.; 2005; 45(3); 581-2006
20712,7186.0,,,20713.0,http://www.srcinc.com/what-we-do/product.aspx?id=133,50.5,p-bromoacetophenone,O=C(C)c1ccc(Br)cc1,PHYSPROP
19803,9873.0,,,19804.0,http://www.srcinc.com/what-we-do/product.aspx?id=133,209.0,9h-thioxanthen-9-one,O=C1c3ccccc3Sc2ccccc12,PHYSPROP
3778,21106501.0,,,3779.0,http://www.alfa.com/en/GP100W.pgm?DSSTK=B22674,-80.0,3-chloro-2-methylpropene,CC(=C)CCl,Alfa Aesar
5600,2845663.0,,,5601.0,http://www.alfa.com/en/GP100W.pgm?DSSTK=L15642,163.0,"5-(2,4-dichlorophenyl)-1h-tetrazole",c1cc(c(cc1Cl)Cl)c2[nH]nnn2,Alfa Aesar
17688,23040.0,,,17689.0,http://www.srcinc.com/what-we-do/product.aspx?id=133,-80.0,chlorosulfonic acid,ClS(=O)(=O)O,PHYSPROP
8555,599520.0,,,8556.0,http://www.alfa.com/en/GP100W.pgm?DSSTK=A13824,234.0,"trans-2,4-dichlorocinnamic acid",c1cc(c(cc1Cl)Cl)/C=C/C(=O)O,Alfa Aesar
23372,62393.0,,,23373.0,http://www.srcinc.com/what-we-do/product.aspx?id=133,128.0,"quinoline, 2-(tribromomethyl)-",BrC(Br)(Br)c1ccc2ccccc2n1,PHYSPROP
28543,5136.0,,,28544.0,http://dx.doi.org/10.1016/j.chemosphere.2013.10.095,196.0,Sulfamethazine,CC1=CC(=NC(=N1)NS(=O)(=O)C2=CC=C(C=C2)N)C,Abraham M.H. and Acree Jr. W.E. The solubility of liquid and solid compounds in dry octan-1-ol. Chemosphere (2013)
13871,11715.0,,,13872.0,http://www.amazon.com/dp/088318205X,22.0,3-nonanol,CCCCCCC(O)CC,Wilhoit R. C. Physical and Thermodynamic Properties of Aliphatic Alcohols. (Supplement to Journal of Physical and Chemical Reference Data; Vol 2; No. 1.); American Chemical Society; Washington; 1973.
6923,4527298.0,,,6924.0,http://www.alfa.com/en/GP100W.pgm?DSSTK=L11969,235.0,"dimethyl trans-stilbene-4,4'-dicarboxylate",COC(=O)c1ccc(cc1)/C=C/c2ccc(cc2)C(=O)OC,Alfa Aesar
15315,11372.0,,,15316.0,http://msds.chem.ox.ac.uk/,31.0,2-Nitrofuran,[O-][N+](=O)c1ccco1,academic website
16359,3040.0,,,16360.0,http://www.drugbank.ca/drugs/DB00843,206.72,Donepezil,COc1cc2C(=O)C(Cc2cc1OC)CC4CCN(Cc3ccccc3)CC4,DrugBank
18624,13675.0,,,18625.0,http://www.srcinc.com/what-we-do/product.aspx?id=133,267.0,"1h-indole-2,3-dione, 7-methyl- (9ci)",Cc2cccc1c2NC(=O)C1=O,PHYSPROP
7762,6366745.0,,,7763.0,http://www.alfa.com/en/GP100W.pgm?DSSTK=H53415,99.0,N-(2-pentynyl)phthalimide,CCC#CCN1C(=O)c2ccccc2C1=O,Alfa Aesar
10460,2035948.0,,,10461.0,http://dx.doi.org/10.1021/ci0500132,104.0,"4-(4-tert-butylphenyl)-5'-methoxy-1',3'-dihydrospiro[cyclohexane-1,2'-indene]-1',4-diol",OC1c2ccc(OC)cc2CC21CCC(O)(CC2)c1ccc(cc1)C(C)(C)C,Karthikeyan M.; Glen R.C.; Bender A. General melting point prediction based on a diverse compound dataset and artificial neural networks. J. Chem. Inf. Model.; 2005; 45(3); 581-2043
9532,4705569.0,,,9533.0,http://dx.doi.org/10.1021/ci0500132,150.0,N-[(E)-2-(2-nitrophenyl)ethenyl]acetamide,O=[N+]([O-])c1ccccc1C=CNC(=O)C,Karthikeyan M.; Glen R.C.; Bender A. General melting point prediction based on a diverse compound dataset and artificial neural networks. J. Chem. Inf. Model.; 2005; 45(3); 581-1115
27516,13063.0,,,27517.0,http://webbook.nist.gov/cgi/cbook.cgi?ID=C939275&Units=SI&Mask=7,-7.45,2-ethylnaphthalene,CCc1ccc2ccccc2c1,NIST Web Book
1851,258677.0,,,1852.0,http://www.alfa.com/en/GP100W.pgm?DSSTK=H27456,177.0,2-acetamido-5-bromopyridine,CC(=O)Nc1ccc(cn1)Br,Alfa Aesar
20757,7122.0,,,20758.0,http://www.srcinc.com/what-we-do/product.aspx?id=133,67.0,"benzenesulfonic acid, 4-chloro-",OS(=O)(=O)c1ccc(Cl)cc1,PHYSPROP
12708,90183.0,,,12709.0,http://dx.doi.org/10.1021/ci0500132,116.0,3-oxoindane-1-carboxylic acid,O=C1CC(c2ccccc21)C(=O)O,Karthikeyan M.; Glen R.C.; Bender A. General melting point prediction based on a diverse compound dataset and artificial neural networks. J. Chem. Inf. Model.; 2005; 45(3); 581-4291
10768,2034272.0,x,salt - AL,10769.0,http://dx.doi.org/10.1021/ci0500132,347.0,"10,10-dimethyl-8-[5-(4-nitrophenyl)furan-2-yl]-6-phenyl-10H-pyrido[1,2-a]indolium perchlorate",[Cl+3]([O-])([O-])([O-])[O-].O=[N+]([O-])c1ccc(cc1)c1oc(cc1)c1cc2[nH0+](c3ccccc3C2(C)C)c(c1)c1ccccc1,Karthikeyan M.; Glen R.C.; Bender A. General melting point prediction based on a diverse compound dataset and artificial neural networks. J. Chem. Inf. Model.; 2005; 45(3); 581-2351
21952,3127.0,,,21953.0,http://www.srcinc.com/what-we-do/product.aspx?id=133,185.5,"cholestan-3-ol, (3.alpha.,5.alpha.)-",CC(C)CCCC(C)C1CCC2C3CCC4CC(O)CCC4(C)C3CCC12C,PHYSPROP
28608,5355.0,,,28609.0,http://dx.doi.org/10.1080/10629360701430124,234.0,triazolam,Clc4ccccc4C/2=N/Cc1nnc(n1c3c\2cc(Cl)cc3)C,RAEVSKY OA; PERLOVICH GL and SCHAPER K-J. Physicochemical properties/descriptors governing the solubility and partitioning of chemicals in water-solvent-gas systems. Part 2. Solubility in 1-octanol. SAR and QSAR in Environmental Research Vol. 18 Nos. 5–6 July–September 2007 543–578
28090,13846749.0,,,28091.0,http://dx.doi.org/10.1016/j.chemosphere.2013.10.095,116.0,Ethyl 4-hydroxybenzoate,CCOC(=O)C1=CC=C(C=C1)O,Abraham M.H. and Acree Jr. W.E. The solubility of liquid and solid compounds in dry octan-1-ol. Chemosphere (2013)
25926,9703191.0,,,25927.0,http://www.srcinc.com/what-we-do/product.aspx?id=133,-109.2,"propene, 1,2-dichloro-3,3,3-trifluoro-",ClC=C(Cl)C(F)(F)F,PHYSPROP
708,8900.0,,,709.0,http://www.alfa.com/en/GP100W.pgm?DSSTK=A11597,120.0,"1,2,4-triazole",c1[nH]ncn1,Alfa Aesar
418,80012.0,,,419.0,http://www.alfa.com/en/GP100W.pgm?DSSTK=L00313,49.0,"1,8-bis(dimethylamino)naphthalene",CN(C)c1cccc2c1c(ccc2)N(C)C,Alfa Aesar
23537,63117.0,,,23538.0,http://www.srcinc.com/what-we-do/product.aspx?id=133,42.4,"silane, triphenyl-",c1ccccc1[SiH](c2ccccc2)c3ccccc3,PHYSPROP
13153,6313.0,,,13154.0,http://www.amazon.com/dp/B002IYRJWI,-65.0,2-methylpropanal,CC(C)C=O,American Petroleum Institute. Research Project 44; Selected Values of Properties of Hydrocarbons and Related Compounds. Texas A & M University; College Station; TX; 1973.
26297,10468652.0,,,26298.0,http://www.srcinc.com/what-we-do/product.aspx?id=133,69.5,"phosphoric acid,2-chloro-(2,4-dichlorophenyl)vin",Clc1cc(Cl)ccc1C(/OP(=O)(OC)OC)=CCl,PHYSPROP
26019,10438564.0,,,26020.0,http://www.srcinc.com/what-we-do/product.aspx?id=133,248.0,minoxidil,Nc1cc(nc(N)[n+]1[O-])N2CCCCC2,PHYSPROP
24332,79806.0,,,24333.0,http://www.srcinc.com/what-we-do/product.aspx?id=133,-57.5,"propanoic acid, hexyl ester",O=C(CC)OCCCCCC,PHYSPROP
17954,18704.0,,,17955.0,http://www.srcinc.com/what-we-do/product.aspx?id=133,-70.0,2-ethylbutyl acrylate,CCC(CC)COC(=O)C=C,PHYSPROP
11203,2032667.0,x,salt - AL,11204.0,http://dx.doi.org/10.1021/ci0500132,232.0,"2,4-diphenylpyranium perchlorate",[Cl+3]([O-])([O-])([O-])[O-].[o+]1ccc(cc1c1ccccc1)c1ccccc1,Karthikeyan M.; Glen R.C.; Bender A. General melting point prediction based on a diverse compound dataset and artificial neural networks. J. Chem. Inf. Model.; 2005; 45(3); 581-2786
10326,2036499.0,,,10327.0,http://dx.doi.org/10.1021/ci0500132,166.0,"2-{[4-(dimethylamino)benzyl]amino}naphthalene-1,4-dione",O=C1C=C(NCc2ccc(N(C)C)cc2)C(=O)c2ccccc12,Karthikeyan M.; Glen R.C.; Bender A. General melting point prediction based on a diverse compound dataset and artificial neural networks. J. Chem. Inf. Model.; 2005; 45(3); 581-1909
9442,4799926.0,,,9443.0,http://dx.doi.org/10.1021/ci0500132,166.0,(1E)-1-(1-naphthalen-2-yl-2-phenylethylidene)-2-phenylhydrazine,N(Nc1ccccc1)=C(Cc1ccccc1)c1ccc2ccccc2c1,Karthikeyan M.; Glen R.C.; Bender A. General melting point prediction based on a diverse compound dataset and artificial neural networks. J. Chem. Inf. Model.; 2005; 45(3); 581-1025
1217,73945.0,,,1218.0,http://www.alfa.com/en/GP100W.pgm?DSSTK=L00501,70.0,"2,3,5,6-tetramethylbenzyl chloride",Cc1cc(c(c(c1C)CCl)C)C,Alfa Aesar
21344,5999.0,,,21345.0,http://www.srcinc.com/what-we-do/product.aspx?id=133,162.75,triaziquone,O=C1C=C(C(=O)C(=C1N2CC2)N3CC3)N4CC4,PHYSPROP
20071,8782.0,,,20072.0,http://www.srcinc.com/what-we-do/product.aspx?id=133,68.0,benzo(c)phenanthrene,c3cc2ccc1ccccc1c2c4ccccc34,PHYSPROP
21137,6377.0,,,21138.0,http://www.srcinc.com/what-we-do/product.aspx?id=133,-9.0,cumene hydroperoxide,OOC(C)(C)c1ccccc1,PHYSPROP
14208,2916.0,,,14209.0,http://www.questia.com/library/book/physical_properties_of_chemical_compounds_by_robert_rickert_dreisbach.jsp,-53.0,dibromomethane,BrCBr,Dreisbach R. R. Physical Properties of Chemical Compounds; Vol. III; American Chemical Society; Washington; 1961.
5427,3314840.0,,,5428.0,http://www.alfa.com/en/GP100W.pgm?DSSTK=L15584,105.0,4-n-butylbenzeneboronic acid,B(c1ccc(cc1)CCCC)(O)O,Alfa Aesar
8776,238.0,,,8777.0,http://dx.doi.org/10.1021/ci020280x,122.0,benzoic acid,OC(=O)c1ccccc1,Bergstrom C. A. S.; Norinder U.; Luthman K.; Artursson P. Molecular Descriptors Influencing Melting Point and Their Role in Classification of Solid Drugs. J. Chem. Inf. Comput. Sci.; (Article); 2003; 43(4); 1177-1223
9631,4645505.0,,,9632.0,http://dx.doi.org/10.1021/ci0500132,164.0,"(2Z)-2-(4-phenyl-1,3-thiazol-2-yl)-3-pyridin-3-ylprop-2-enenitrile",s1cc([nH0]c1C(C#N)=Cc1c[nH0]ccc1)c1ccccc1,Karthikeyan M.; Glen R.C.; Bender A. General melting point prediction based on a diverse compound dataset and artificial neural networks. J. Chem. Inf. Model.; 2005; 45(3); 581-1214
2824,2063506.0,,,2825.0,http://www.alfa.com/en/GP100W.pgm?DSSTK=H26105,23.0,2-methoxy-5-(trifluoromethoxy)benzaldehyde,COc1ccc(cc1C=O)OC(F)(F)F,Alfa Aesar
2747,11476.0,,,2748.0,http://www.alfa.com/en/GP100W.pgm?DSSTK=A13924,146.0,2-hydroxyphenylacetic acid,c1ccc(c(c1)CC(=O)O)O,Alfa Aesar
78,6040.0,,,79.0,http://www.alfa.com/en/GP100W.pgm?DSSTK=30898,-79.0,1-pentanol,CCCCCO,Alfa Aesar
1937,643108.0,,,1938.0,http://www.alfa.com/en/GP100W.pgm?DSSTK=L19950,182.0,"2-amino-4,5-difluorobenzoic acid",c1c(c(cc(c1F)F)N)C(=O)O,Alfa Aesar
25486,2505663.0,,,25487.0,http://www.srcinc.com/what-we-do/product.aspx?id=133,187.0,"1h-benzotriazole-1-acetamide, ?,?-dimethyl-",NC(=O)C(C)(C)n2nnc1ccccc12,PHYSPROP
11209,2032659.0,,,11210.0,http://dx.doi.org/10.1021/ci0500132,152.0,"(4,6-diphenyl-2H-pyran-2-yl)(diphenyl)phosphane oxide",[P+]([O-])(c1ccccc1)(c1ccccc1)C1OC(=CC(=C1)c1ccccc1)c1ccccc1,Karthikeyan M.; Glen R.C.; Bender A. General melting point prediction based on a diverse compound dataset and artificial neural networks. J. Chem. Inf. Model.; 2005; 45(3); 581-2792
3966,109704.0,,,3967.0,http://www.alfa.com/en/GP100W.pgm?DSSTK=H25765,67.0,3-fluoropyridine n-oxide,c1cc(c[n+](c1)[O-])F,Alfa Aesar
28398,21106570.0,,,28399.0,http://dx.doi.org/10.1080/10629360701430124,85.0,pentachlorobenzene,Clc1cc(Cl)c(Cl)c(Cl)c1Cl,RAEVSKY OA; PERLOVICH GL and SCHAPER K-J. Physicochemical properties/descriptors governing the solubility and partitioning of chemicals in water-solvent-gas systems. Part 2. Solubility in 1-octanol. SAR and QSAR in Environmental Research Vol. 18 Nos. 5–6 July–September 2007 543–578
18330,15445.0,,,18331.0,http://www.srcinc.com/what-we-do/product.aspx?id=133,89.5,"2(1h)-pyridinethione, 1-methyl-",S=C1C=CC=CN1C,PHYSPROP
20230,8167.0,x,metal,20231.0,http://www.srcinc.com/what-we-do/product.aspx?id=133,174.0,carbarsone,O=C(N)Nc1ccc(cc1)[As](O)(O)=O,PHYSPROP
15381,1611.0,,,15382.0,http://msds.chem.ox.ac.uk/,179.5,"3-Methyl-1,2-dihydrocyclopenta[ij]tetraphene",Cc2ccc3cc1c5ccccc5ccc1c4CCc2c34,academic website
27726,0.0,,,27727.0,http://www.arkat-usa.org/get-file/42339/,143.0,"9,9-Dimethyl-12-(trimethylsilyl)-9,10-dihydro-6H-naphtho[2,3-c]chromen-11(8H)-one",CC2(CC1=CC4=C(C(=C1C(C2)=O)[Si](C)(C)C)C3=CC=CC=C3OC4)C,Arkivoc
17573,25973.0,,,17574.0,http://www.srcinc.com/what-we-do/product.aspx?id=133,47.0,3-(1-nitroso-2-pyrrolidinyl)pyridine,O=NN2CCCC2c1cnccc1,PHYSPROP
14123,11911.0,,,14124.0,http://www.questia.com/library/book/physical_properties_of_chemical_compounds_by_robert_rickert_dreisbach.jsp,-70.0,"1,1,1,2-tetrachloroethane",ClCC(Cl)(Cl)Cl,Dreisbach R. R. Physical Properties of Chemical Compounds; Vol. III; American Chemical Society; Washington; 1961.
15524,6703.0,,,15525.0,http://msds.chem.ox.ac.uk/,181.0,"5-Nitro-1H-isoindole-1,3(2H)-dione",[O-][N+](=O)c1ccc2C(=O)NC(=O)c2c1,academic website
9007,62125.0,,,9008.0,http://dx.doi.org/10.1021/ci020280x,120.0,vinconate,CCN1CCc3c2C1CC=C(C(=O)OC)n2c4ccccc34,Bergstrom C. A. S.; Norinder U.; Luthman K.; Artursson P. Molecular Descriptors Influencing Melting Point and Their Role in Classification of Solid Drugs. J. Chem. Inf. Comput. Sci.; (Article); 2003; 43(4); 1177-1454
25868,7844539.0,,,25869.0,http://www.srcinc.com/what-we-do/product.aspx?id=133,99.0,aldicarb,CC(C)(C=NOC(=O)NC)SC,PHYSPROP
1834,29135.0,,,1835.0,http://www.alfa.com/en/GP100W.pgm?DSSTK=A17244,37.0,"2,6-di-tert-butylphenol",CC(C)(C)c1cccc(c1O)C(C)(C)C,Alfa Aesar
2410,61164.0,,,2411.0,http://www.alfa.com/en/GP100W.pgm?DSSTK=A10513,37.0,2-chloro-6-fluorobenzaldehyde,c1cc(c(c(c1)Cl)C=O)F,Alfa Aesar
3424,32882.0,,,3425.0,http://www.alfa.com/en/GP100W.pgm?DSSTK=A13325,63.0,"3,5-dichlorobenzaldehyde",c1c(cc(cc1Cl)Cl)C=O,Alfa Aesar
3611,16842.0,,,3612.0,http://www.alfa.com/en/GP100W.pgm?DSSTK=B20669,209.0,3-amino-4-methoxybenzoic acid,COc1ccc(cc1N)C(=O)O,Alfa Aesar
8878,60263.0,,,8879.0,http://dx.doi.org/10.1021/ci020280x,101.0,phenocoll,CCOc1ccc(NC(=O)CN)cc1,Bergstrom C. A. S.; Norinder U.; Luthman K.; Artursson P. Molecular Descriptors Influencing Melting Point and Their Role in Classification of Solid Drugs. J. Chem. Inf. Comput. Sci.; (Article); 2003; 43(4); 1177-1325
6968,63744.0,,,6969.0,http://www.alfa.com/en/GP100W.pgm?DSSTK=B21115,66.0,diphenyl(p-tolyl)phosphine,Cc1ccc(cc1)P(c2ccccc2)c3ccccc3,Alfa Aesar
26656,13876103.0,,,26657.0,http://www.srcinc.com/what-we-do/product.aspx?id=133,-9.1,eugenol,Oc1ccc(cc1OC)CC=C,PHYSPROP
13439,221119.0,,,13440.0,http://www.amazon.com/dp/B002IYRJWI,-90.0,"trans-1,3-dimethylcyclohexane",C[C@H]1CCC[C@H](C)C1,American Petroleum Institute. Research Project 44; Selected Values of Properties of Hydrocarbons and Related Compounds. Texas A & M University; College Station; TX; 1973.
28561,5151.0,,,28562.0,http://dx.doi.org/10.1016/j.chemosphere.2013.10.095,194.0,Sulfisoxazole,CC1=C(ON=C1C)NS(=O)(=O)C2=CC=C(C=C2)N,Abraham M.H. and Acree Jr. W.E. The solubility of liquid and solid compounds in dry octan-1-ol. Chemosphere (2013)
2876,70915.0,,,2877.0,http://www.alfa.com/en/GP100W.pgm?DSSTK=L18792,53.0,2-methyl-3-nitroanisole,Cc1c(cccc1OC)[N+](=O)[O-],Alfa Aesar
23519,63025.0,,,23520.0,http://www.srcinc.com/what-we-do/product.aspx?id=133,-35.4,cyclopropanamine,NC1CC1,PHYSPROP
5422,70670.0,,,5423.0,http://www.alfa.com/en/GP100W.pgm?DSSTK=L11664,21.0,4-morpholinepropionitrile,C1COCCN1CCC#N,Alfa Aesar
22770,47944.0,,,22771.0,http://www.srcinc.com/what-we-do/product.aspx?id=133,180.1,bromobutide,CC(C)(C)C(Br)C(=O)NC(C)(C)c1ccccc1,PHYSPROP
3643,21111768.0,,,3644.0,http://www.alfa.com/en/GP100W.pgm?DSSTK=A13216,61.0,3-aminopyridine,c1cc(cnc1)N,Alfa Aesar
1929,70279.0,,,1930.0,http://www.alfa.com/en/GP100W.pgm?DSSTK=A14368,166.0,2-amino-3-nitropyridine,c1cc(c(nc1)N)[N+](=O)[O-],Alfa Aesar
27986,11167.0,,,27987.0,http://pubs.acs.org/doi/abs/10.1021/ja01110a015,-177.16,cyclopropylmethane,C1(CC1)C,Gragson JT; Greenlee KW; Derfer JM; Boord CE Journal of the American Chemical Society; 75(14); 3344-3347 (1953)
14956,9546.0,,,14957.0,http://msds.chem.ox.ac.uk/,195.0,"1,3-Thiazolidine-4-carboxylic acid",O=C(O)C1CSCN1,academic website
11239,2032616.0,,,11240.0,http://dx.doi.org/10.1021/ci0500132,100.0,2-[Bis(5-methyl-2-furyl)methyl]-4-bromo-6-nitrophenol,Brc1cc([N+](=O)[O-])c(O)c(c1)C(c1oc(C)cc1)c1oc(C)cc1,Karthikeyan M.; Glen R.C.; Bender A. General melting point prediction based on a diverse compound dataset and artificial neural networks. J. Chem. Inf. Model.; 2005; 45(3); 581-2822
20912,6829.0,x,salt JCB,20913.0,http://www.srcinc.com/what-we-do/product.aspx?id=133,248.5,"piperazine, 1-phenyl-, hydrochloride",c1cc(ccc1)N2CCNCC2,PHYSPROP
16498,30572.0,,,16499.0,http://www.drugbank.ca/drugs/DB00142,224.0,L-Glutamic Acid,OC(=O)CC[C@H](N)C(=O)O,DrugBank
2505,602013.0,,,2506.0,http://www.alfa.com/en/GP100W.pgm?DSSTK=H27133,149.0,2-chloroquinoline-3-carboxaldehyde,c1ccc2c(c1)cc(c(n2)Cl)C=O,Alfa Aesar