,csid,donotuse,donotusebecause,key,link,mpC,name,smiles,source
20275,8083.0,,,20276.0,http://www.srcinc.com/what-we-do/product.aspx?id=133,190.0,"benzoic acid, 2-hydroxy-5-iodo-",OC(=O)c1cc(I)ccc1O,PHYSPROP
18429,14888.0,,,18430.0,http://www.srcinc.com/what-we-do/product.aspx?id=133,-53.7,"2-ethyl-1,4-dimethylbenzene",Cc1ccc(C)cc1CC,PHYSPROP
20947,6773.0,,,20948.0,http://www.srcinc.com/what-we-do/product.aspx?id=133,18.3,"toluene-2,6-diisocyanate",O=C=Nc1cccc(N=C=O)c1C,PHYSPROP
5079,28982.0,,,5080.0,http://www.alfa.com/en/GP100W.pgm?DSSTK=B23433,43.0,4-ethylphenol,CCc1ccc(cc1)O,Alfa Aesar
22935,58563.0,,,22936.0,http://www.srcinc.com/what-we-do/product.aspx?id=133,161.5,p-hydroxybenzamide,O=C(N)c1ccc(O)cc1,PHYSPROP
17470,29000.0,,,17471.0,http://www.srcinc.com/what-we-do/product.aspx?id=133,-117.2,isopentanol,CC(C)CCO,PHYSPROP
12255,801069.0,,,12256.0,http://dx.doi.org/10.1021/ci0500132,204.0,"2-[(4-Bromophenyl)hydrazono]-5,5-dimethylcyclohexane-1,3-dione",Brc1ccc(NN=C2C(=O)CC(C)(C)CC2=O)cc1,Karthikeyan M.; Glen R.C.; Bender A. General melting point prediction based on a diverse compound dataset and artificial neural networks. J. Chem. Inf. Model.; 2005; 45(3); 581-3838
5200,2055484.0,,,5201.0,http://www.alfa.com/en/GP100W.pgm?DSSTK=H26097,146.0,4-hydroxy-3-(trifluoromethyl)benzoic acid,c1cc(c(cc1C(=O)O)C(F)(F)F)O,Alfa Aesar
11646,2030808.0,,,11647.0,http://dx.doi.org/10.1021/ci0500132,152.0,2-hydroxy-1-naphthalen-2-yl-2-phenylethanone,O=C(c1ccc2ccccc2c1)C(O)c1ccccc1,Karthikeyan M.; Glen R.C.; Bender A. General melting point prediction based on a diverse compound dataset and artificial neural networks. J. Chem. Inf. Model.; 2005; 45(3); 581-3229
15007,13875230.0,,,15008.0,http://msds.chem.ox.ac.uk/,-48.0,1-Chloro-3-methylbenzene,Cc1cc(Cl)ccc1,academic website
10116,3213225.0,,,10117.0,http://dx.doi.org/10.1021/ci0500132,124.0,methyl 6-bromo-7-oxocholan-24-oate,BrC1C(=O)C2C3CCC(C(C)CCC(=O)OC)C3(C)CCC2C2(C)CCCCC12,Karthikeyan M.; Glen R.C.; Bender A. General melting point prediction based on a diverse compound dataset and artificial neural networks. J. Chem. Inf. Model.; 2005; 45(3); 581-1699
13935,13850405.0,,,13936.0,http://www.amazon.com/dp/B003XEQTLE,-51.0,benzyl_acetate,CC(=O)OCc1ccccc1,Aldrich Chemical Company; Aldrich Catalog-Handbook of Fine Chemicals; Milwaukee; WI; 1984.
25896,8112367.0,,,25897.0,http://www.srcinc.com/what-we-do/product.aspx?id=133,140.5,dpx-jw062,FC(F)(F)Oc1ccc(cc1)N(C(=O)OC)C(=O)N2N=C3c4ccc(Cl)cc4CC3(OC2)C(=O)OC,PHYSPROP
7837,10408.0,,,7838.0,http://www.alfa.com/en/GP100W.pgm?DSSTK=A10973,35.0,"N,N'-dicyclohexylcarbodiimide",C1CCC(CC1)N=C=NC2CCCCC2,Alfa Aesar
26803,21106466.0,,,26804.0,http://www.srcinc.com/what-we-do/product.aspx?id=133,-50.0,propargyl alcohol,C#CCO,PHYSPROP
16455,2010.0,,,16456.0,http://www.drugbank.ca/drugs/DB00437,350.0,Allopurinol,O=C2N=CN=C1NNC=C12,DrugBank
15386,29000.0,,,15387.0,http://msds.chem.ox.ac.uk/,-117.0,3-Methylbutan-1-ol,CC(C)CCO,academic website
20010,8950.0,,,20011.0,http://www.srcinc.com/what-we-do/product.aspx?id=133,-40.0,allylbenzene,C=CCc1ccccc1,PHYSPROP
15771,28977.0,,,15772.0,http://msds.chem.ox.ac.uk/,-7.0,Dodecylbenzene,CCCCCCCCCCCCc1ccccc1,academic website
3673,2017984.0,,,3674.0,http://www.alfa.com/en/GP100W.pgm?DSSTK=H50235,169.0,3-bromo-2-fluorobenzoic acid,c1cc(c(c(c1)Br)F)C(=O)O,Alfa Aesar
28373,7190.0,,,28374.0,http://www.aapspharmscitech.org/view.asp?art=pt070126,180.0,p-toluic acid,Cc1ccc(cc1)C(=O)O,Sepassi K; Yalkowsky SH; AAPS PharmSciTech; 7(1); E1-E8 (2006)
17569,26064.0,,,17570.0,http://www.srcinc.com/what-we-do/product.aspx?id=133,-120.0,"2,2,4-trimethylhexane",CC(CC)CC(C)(C)C,PHYSPROP
4363,109684.0,,,4364.0,http://www.alfa.com/en/GP100W.pgm?DSSTK=A16895,31.0,4-(trifluoromethyl)benzyl bromide,c1cc(ccc1CBr)C(F)(F)F,Alfa Aesar
16164,13863645.0,,,16165.0,http://msds.chem.ox.ac.uk/,-57.5,Trichloroacetaldehyde,ClC(Cl)(Cl)C=O,academic website
17193,9696.0,,,17194.0,http://dx.doi.org/10.1021/ci700307p,75.5,propoxyphene,CN(C)C[C@@H](C)[C@@](OC(=O)CC)(Cc1ccccc1)c2ccccc2,Hughes LD; Palmer DS; Nigsch F and Mitchell JBO. 2008 Why are some properties more difficult to predict than others? A study of QSPR models of solubility; melting point and LogP. J. Chem. Inf. Model. 2008. 48 (1). pp 220?341
919,4696797.0,,,920.0,http://www.alfa.com/en/GP100W.pgm?DSSTK=B21553,200.0,(1R)-camphor-10-sulfonic acid,CC1([C@H]2CC[C@@]1(C(=O)C2)CS(=O)(=O)O)C,Alfa Aesar
9491,4761944.0,,,9492.0,http://dx.doi.org/10.1021/ci0500132,200.0,"3-{(2E)-2-[1,3-benzothiazol-2-yl(cyano)methylidene]hydrazino}benzoic acid",s1c2ccccc2[nH0]c1C(=NNc1cccc(c1)C(=O)O)C#N,Karthikeyan M.; Glen R.C.; Bender A. General melting point prediction based on a diverse compound dataset and artificial neural networks. J. Chem. Inf. Model.; 2005; 45(3); 581-1074
10712,2034573.0,,,10713.0,http://dx.doi.org/10.1021/ci0500132,141.0,"5-(4-fluorophenyl)-3-[(4-methoxyphenyl)carbonyl]-3aH-pyrrolo[3,4-d]isoxazole-4,6(5H,6aH)-dione",Fc1ccc(N2C(=O)C3ON=C(C(=O)c4ccc(OC)cc4)C3C2=O)cc1,Karthikeyan M.; Glen R.C.; Bender A. General melting point prediction based on a diverse compound dataset and artificial neural networks. J. Chem. Inf. Model.; 2005; 45(3); 581-2295
17392,30881.0,,,17393.0,http://www.srcinc.com/what-we-do/product.aspx?id=133,87.0,secbumeton,COc1nc(NCC)nc(NC(C)CC)n1,PHYSPROP
26010,10438446.0,,,26011.0,http://www.srcinc.com/what-we-do/product.aspx?id=133,173.5,"2h-benzotriazole-2-acetamide, ?,?-dimethyl-",NC(=O)C(C)(C)n1nc2ccccc2n1,PHYSPROP
11564,2031061.0,,,11565.0,http://dx.doi.org/10.1021/ci0500132,74.0,"2,2'-butane-1,4-diyldianiline",Nc1ccccc1CCCCc1ccccc1N,Karthikeyan M.; Glen R.C.; Bender A. General melting point prediction based on a diverse compound dataset and artificial neural networks. J. Chem. Inf. Model.; 2005; 45(3); 581-3147
28328,2397725.0,,,28329.0,http://malaria.ourexperiment.org/uri/1,48.5,OSM-S-01,Cc1ccc(C)n1c1ccc(cc1)F,OSDD
27935,305.0,,,27936.0,http://chemspider.com/305,153.0,citric acid anhydrous,C(C(=O)O)C(CC(=O)O)(C(=O)O)O,EPISuite-ChemSpider
21999,2929.0,,,22000.0,http://www.srcinc.com/what-we-do/product.aspx?id=133,177.5,"phenol,2,2'-methylenebis 4-chloro-",Oc2ccc(Cl)cc2Cc1cc(Cl)ccc1O,PHYSPROP
16002,919.0,,,16003.0,http://msds.chem.ox.ac.uk/,-42.0,Nitric acid,[O-][N+](=O)O,academic website
21507,5215.0,,,21508.0,http://www.srcinc.com/what-we-do/product.aspx?id=133,155.0,testosterone,O=C2CCC3(C)C4CCC1(C)C(CCC1O)C4CCC3=C2,PHYSPROP
1294,292295.0,,,1295.0,http://www.alfa.com/en/GP100W.pgm?DSSTK=H50482,123.0,"2,3-dihydro-6-phenylimidazo[2,1-b]thiazole-5-carboxaldehyde",c1ccc(cc1)c2c(n3c(n2)SCC3)C=O,Alfa Aesar
18747,13059.0,,,18748.0,http://www.srcinc.com/what-we-do/product.aspx?id=133,98.5,"1,2-diaminonaphthalene",Nc1c2ccccc2ccc1N,PHYSPROP
23306,62160.0,,,23307.0,http://www.srcinc.com/what-we-do/product.aspx?id=133,260.0,disulfamide,O=S(N)(=O)c1cc(c(C)cc1Cl)S(N)(=O)=O,PHYSPROP
31,6739.0,,,32.0,http://www.alfa.com/en/GP100W.pgm?DSSTK=A11862,96.0,1-naphthol,c1ccc2c(c1)cccc2O,Alfa Aesar
11024,2033773.0,,,11025.0,http://dx.doi.org/10.1021/ci0500132,184.0,"3-(4-nitrophenyl)-3,4-dihydro-1H-isochromen-1-one",O=[N+]([O-])c1ccc(cc1)C1OC(=O)c2ccccc2C1,Karthikeyan M.; Glen R.C.; Bender A. General melting point prediction based on a diverse compound dataset and artificial neural networks. J. Chem. Inf. Model.; 2005; 45(3); 581-2607
28474,1005.0,,,28475.0,http://chemspider.com/1005,-20.7,propanoic acid,CCC(=O)O,EPISuite-ChemSpider
23669,64709.0,,,23670.0,http://www.srcinc.com/what-we-do/product.aspx?id=133,80.3,"3,5-dihydroxyanisole",Oc1cc(O)cc(OC)c1,PHYSPROP
3822,2038291.0,,,3823.0,http://www.alfa.com/en/GP100W.pgm?DSSTK=H26808,53.0,3'-chloro-5'-fluoroacetophenone,CC(=O)c1cc(cc(c1)Cl)F,Alfa Aesar
16560,1031.0,,,16561.0,http://www.drugbank.ca/drugs/DB00119,11.8,Pyruvic acid,CC(=O)C(=O)O,DrugBank
10767,2034274.0,x,salt - AL,10768.0,http://dx.doi.org/10.1021/ci0500132,264.0,"8-[5-(4-ethoxyphenyl)furan-2-yl]-10,10-dimethyl-6-phenyl-10H-pyrido[1,2-a]indolium perchlorate",[Cl+3]([O-])([O-])([O-])[O-].o1c(ccc1c1cc2[nH0+](c3ccccc3C2(C)C)c(c1)c1ccccc1)c1ccc(OCC)cc1,Karthikeyan M.; Glen R.C.; Bender A. General melting point prediction based on a diverse compound dataset and artificial neural networks. J. Chem. Inf. Model.; 2005; 45(3); 581-2350
5890,66013.0,,,5891.0,http://www.alfa.com/en/GP100W.pgm?DSSTK=L10861,309.0,5-ethyluracil,CCc1c[nH]c(=O)[nH]c1=O,Alfa Aesar
8257,15104.0,,,8258.0,http://www.alfa.com/en/GP100W.pgm?DSSTK=A12618,-38.0,phenyl chloroformate,c1ccc(cc1)OC(=O)Cl,Alfa Aesar
15522,628889.0,,,15523.0,http://msds.chem.ox.ac.uk/,266.0,"5-Methyl-2-thioxo-2,3-dihydropyrimidin-4(1H)-one",CC1=CNC(=S)NC1=O,academic website
19399,11095.0,,,19400.0,http://www.srcinc.com/what-we-do/product.aspx?id=133,-55.5,2-hexanone,CC(=O)CCCC,PHYSPROP
1552,8150.0,,,1553.0,http://www.alfa.com/en/GP100W.pgm?DSSTK=A17452,69.0,"2,4-dinitrotoluene",Cc1ccc(cc1[N+](=O)[O-])[N+](=O)[O-],Alfa Aesar
8227,69160.0,,,8228.0,http://www.alfa.com/en/GP100W.pgm?DSSTK=A16514,95.0,pentaerythrityl tetrachloride,C(C(CCl)(CCl)CCl)Cl,Alfa Aesar
28362,953.0,,,28363.0,http://www.aapspharmscitech.org/view.asp?art=pt070126,189.0,p-aminobenzoic acid,O=C(O)c1ccc(N)cc1,Sepassi K; Yalkowsky SH; AAPS PharmSciTech; 7(1); E1-E8 (2006)
8943,31034.0,,,8944.0,http://dx.doi.org/10.1021/ci020280x,192.0,glibornuride,Cc1ccc(cc1)S(=O)(=O)NC(=O)NC2C(O)C3(C)CCC2C3(C)C,Bergstrom C. A. S.; Norinder U.; Luthman K.; Artursson P. Molecular Descriptors Influencing Melting Point and Their Role in Classification of Solid Drugs. J. Chem. Inf. Comput. Sci.; (Article); 2003; 43(4); 1177-1390
25251,553344.0,,,25252.0,http://www.srcinc.com/what-we-do/product.aspx?id=133,7.0,"cinnamic acid, ethyl ester",O=C(/C=C/c1ccccc1)OCC,PHYSPROP
5584,11483984.0,,,5585.0,http://www.alfa.com/en/GP100W.pgm?DSSTK=L14473,379.0,4-tert-butylcalix[6]arene,CC(C)(C)c1ccc2cc1Cc3cccc(c3)Cc4cccc(c4)Cc5cccc(c5)Cc6cccc(c6)Cc7cccc(c7)C2,Alfa Aesar
9598,4645644.0,,,9599.0,http://dx.doi.org/10.1021/ci0500132,164.0,(3Z)-5-(2-methylpropyl)-3-{[5-(3-nitrophenyl)furan-2-yl]methylidene}furan-2(3H)-one,O=[N+]([O-])c1cccc(c1)c1oc(cc1)C=C1C=C(OC1=O)CC(C)C,Karthikeyan M.; Glen R.C.; Bender A. General melting point prediction based on a diverse compound dataset and artificial neural networks. J. Chem. Inf. Model.; 2005; 45(3); 581-1181
1618,3081972.0,,,1619.0,http://www.alfa.com/en/GP100W.pgm?DSSTK=H31911,99.0,"2,5-difluoro-4-methoxybenzaldehyde",COc1cc(c(cc1F)C=O)F,Alfa Aesar
20378,7868.0,,,20379.0,http://www.srcinc.com/what-we-do/product.aspx?id=133,-63.0,2-butoxyethanol acetate,O=C(C)OCCOCCCC,PHYSPROP
16420,3336.0,,,16421.0,http://www.drugbank.ca/drugs/DB01004,250.0,Ganciclovir,OCC(CO)OCn2cnc1c2NC(N)=NC1=O,DrugBank
22799,54140.0,,,22800.0,http://www.srcinc.com/what-we-do/product.aspx?id=133,203.5,"3,7-dinitrofluoranthene",[O-][N+](=O)c3cccc4c1ccc([N+]([O-])=O)c2cccc(c12)c34,PHYSPROP
16529,7356.0,,,16530.0,http://www.drugbank.ca/drugs/DB00600,114.0,Monobenzone,Oc2ccc(OCc1ccccc1)cc2,DrugBank
6021,10308731.0,,,6022.0,http://www.alfa.com/en/GP100W.pgm?DSSTK=H53454,84.0,"5-norbornene-2-endo,3-endo-dimethanol",C1[C@@H]2C=C[C@H]1[C@H]([C@H]2CO)CO,Alfa Aesar
5075,11589.0,,,5076.0,http://www.alfa.com/en/GP100W.pgm?DSSTK=A10235,113.0,4-ethylbenzoic acid,CCc1ccc(cc1)C(=O)O,Alfa Aesar
9766,4644992.0,,,9767.0,http://dx.doi.org/10.1021/ci0500132,161.0,4-[3-(5-Methyl-furan-2-yl)-5-nitro-benzofuran-2-yl]-butan-2-one oxime,O=[N+]([O-])c1ccc2oc(CCC(=NO)C)c(c2c1)c1oc(C)cc1,Karthikeyan M.; Glen R.C.; Bender A. General melting point prediction based on a diverse compound dataset and artificial neural networks. J. Chem. Inf. Model.; 2005; 45(3); 581-1349
21192,6296.0,,,21193.0,http://www.srcinc.com/what-we-do/product.aspx?id=133,-8.1,isophorone,O=C1C=C(C)CC(C)(C)C1,PHYSPROP
6855,11972.0,,,6856.0,http://www.alfa.com/en/GP100W.pgm?DSSTK=B21401,45.0,diethyl terephthalate,CCOC(=O)c1ccc(cc1)C(=O)OCC,Alfa Aesar
23924,68437.0,,,23925.0,http://www.srcinc.com/what-we-do/product.aspx?id=133,55.5,"1,2,4-trimethylnaphthalene",Cc1cc(C)c(C)c2ccccc12,PHYSPROP
20308,7997.0,,,20309.0,http://www.srcinc.com/what-we-do/product.aspx?id=133,55.8,"cyclohexanol, 3,3,5-trimethyl-, trans-",CC1(C)CC(C)CC(O)C1,PHYSPROP
7426,392248.0,,,7427.0,http://www.alfa.com/en/GP100W.pgm?DSSTK=A14596,134.0,maleic acid,C(=CC(=O)O)C(=O)O,Alfa Aesar
1019,1724445.0,,,1020.0,http://www.alfa.com/en/GP100W.pgm?DSSTK=H25840,91.0,"2-(methacryloyloxy)ethyl 3,5-diaminobenzoate",CC(=C)C(=O)OCCOC(=O)c1cc(cc(c1)N)N,Alfa Aesar
716,549629.0,,,717.0,http://www.alfa.com/en/GP100W.pgm?DSSTK=B25261,77.0,"1,2,4,5-tetrakis(isopropylthio)benzene",CC(C)Sc1cc(c(cc1SC(C)C)SC(C)C)SC(C)C,Alfa Aesar
4237,83524.0,,,4238.0,http://www.alfa.com/en/GP100W.pgm?DSSTK=B23548,44.0,4-(2-methoxyethyl)phenol,COCCc1ccc(cc1)O,Alfa Aesar
7011,388726.0,,,7012.0,http://www.alfa.com/en/GP100W.pgm?DSSTK=A11264,168.0,D-tartaric acid,[C@H]([C@@H](C(=O)O)O)(C(=O)O)O,Alfa Aesar
16475,2298266.0,,,16476.0,http://www.drugbank.ca/drugs/DB00585,203.0,Nizatidine,CN(C)Cc1nc(CSCCNC(=C[N+]([O-])=O)NC)cs1,DrugBank
20587,7465.0,,,20588.0,http://www.srcinc.com/what-we-do/product.aspx?id=133,-21.0,ethyl chloroacetate,ClCC(=O)OCC,PHYSPROP
1959,212571.0,,,1960.0,http://www.alfa.com/en/GP100W.pgm?DSSTK=L19729,224.0,2-amino-4-methyl-5-nitropyridine,Cc1cc(ncc1[N+](=O)[O-])N,Alfa Aesar
20680,7252.0,,,20681.0,http://www.srcinc.com/what-we-do/product.aspx?id=133,169.5,cyclamate,OS(=O)(=O)NC1CCCCC1,PHYSPROP
10002,4413875.0,,,10003.0,http://dx.doi.org/10.1021/ci0500132,160.0,"7-methoxy-15-oxo-18,20-epoxykaur-16-ene-11,14-diyl diacetate",O=C1C(=C)C2CC(OC(=O)C)C3C45COCC(C)(CCC4)C5CC(OC)C13C2OC(=O)C,Karthikeyan M.; Glen R.C.; Bender A. General melting point prediction based on a diverse compound dataset and artificial neural networks. J. Chem. Inf. Model.; 2005; 45(3); 581-1585
6890,62336.0,,,6891.0,http://www.alfa.com/en/GP100W.pgm?DSSTK=A17885,67.0,dimethyl 4-nitrophthalate,COC(=O)c1ccc(cc1C(=O)OC)[N+](=O)[O-],Alfa Aesar
147,15480.0,,,148.0,http://www.alfa.com/en/GP100W.pgm?DSSTK=A16173,-16.0,1-iododecane,CCCCCCCCCCI,Alfa Aesar
9214,10482458.0,,,9215.0,http://dx.doi.org/10.1021/ci0500132,218.0,"3-[(1E)-N-(2,3-dihydroxypropyl)ethanimidoyl]-4-hydroxy-1-phenylquinolin-2(1H)-one",O=C1N(c2ccccc2)c2ccccc2C(O)=C1C(=NCC(O)CO)C,Karthikeyan M.; Glen R.C.; Bender A. General melting point prediction based on a diverse compound dataset and artificial neural networks. J. Chem. Inf. Model.; 2005; 45(3); 581-797
6176,70788.0,,,6177.0,http://www.alfa.com/en/GP100W.pgm?DSSTK=H27796,246.0,6-nitro-2(3h)-benzoxazolone,c1cc2c(cc1[N+](=O)[O-])oc(=O)[nH]2,Alfa Aesar
10732,2034453.0,,,10733.0,http://dx.doi.org/10.1021/ci0500132,114.0,N-(4-decylphenyl)-4-methylbenzamide,O=C(Nc1ccc(cc1)CCCCCCCCCC)c1ccc(C)cc1,Karthikeyan M.; Glen R.C.; Bender A. General melting point prediction based on a diverse compound dataset and artificial neural networks. J. Chem. Inf. Model.; 2005; 45(3); 581-2315
5783,2286325.0,,,5784.0,http://www.alfa.com/en/GP100W.pgm?DSSTK=L16993,131.0,5-bromo-7-nitroindoline,c1c(cc(c2c1CCN2)[N+](=O)[O-])Br,Alfa Aesar
6966,66398.0,,,6967.0,http://www.alfa.com/en/GP100W.pgm?DSSTK=L02877,197.0,diphenyl terephthalate,c1ccc(cc1)OC(=O)c2ccc(cc2)C(=O)Oc3ccccc3,Alfa Aesar
8771,14952.0,,,8772.0,http://dx.doi.org/10.1021/ci020280x,160.0,azacyclonol,OC(C1CCNCC1)(c2ccccc2)c3ccccc3,Bergstrom C. A. S.; Norinder U.; Luthman K.; Artursson P. Molecular Descriptors Influencing Melting Point and Their Role in Classification of Solid Drugs. J. Chem. Inf. Comput. Sci.; (Article); 2003; 43(4); 1177-1218
10591,2034845.0,,,10592.0,http://dx.doi.org/10.1021/ci0500132,282.0,"4-(3-{[3-(ethoxycarbonyl)-5-methyl-1-(4-methylphenyl)-1H-pyrazol-4-yl]carbonyl}-4,6-dioxo-3a,4,6,6a-tetrahydro-5H-pyrrolo[3,4-d]isoxazol-5-yl)benzoic acid",O=C1N(C(=O)C2C(=NOC12)C(=O)c1c([nH0]([nH0]c1C(=O)OCC)c1ccc(C)cc1)C)c1ccc(cc1)C(=O)O,Karthikeyan M.; Glen R.C.; Bender A. General melting point prediction based on a diverse compound dataset and artificial neural networks. J. Chem. Inf. Model.; 2005; 45(3); 581-2174
3437,16237.0,,,3438.0,http://www.alfa.com/en/GP100W.pgm?DSSTK=L03380,65.0,"3,5-dichloropyridine",c1c(cncc1Cl)Cl,Alfa Aesar
15981,63067.0,,,15982.0,http://msds.chem.ox.ac.uk/,190.0,"Naphthalene-2,3-diamine",Nc1cc2ccccc2cc1N,academic website
8216,4489.0,,,8217.0,http://www.alfa.com/en/GP100W.pgm?DSSTK=A13162,114.0,p-benzoquinone,C1=CC(=O)C=CC1=O,Alfa Aesar
5236,4445524.0,,,5237.0,http://www.alfa.com/en/GP100W.pgm?DSSTK=A15307,184.0,4-hydroxychalcone,c1ccc(cc1)C(=O)/C=C/c2ccc(cc2)O,Alfa Aesar
15790,73564.0,,,15791.0,http://msds.chem.ox.ac.uk/,-22.0,Ethyl 2-cyanoacrylate,N#CC(=C)C(=O)OCC,academic website
26101,10440623.0,,,26102.0,http://www.srcinc.com/what-we-do/product.aspx?id=133,51.5,"benzoic acid, 2-(acetyloxy)-, 2-ethoxy-2-oxoethy",O=C(C)Oc1ccccc1C(=O)OCC(=O)OCC,PHYSPROP
726,10228.0,,,727.0,http://www.alfa.com/en/GP100W.pgm?DSSTK=A14503,166.0,"1,2,3-triacetoxybenzene",CC(=O)Oc1cccc(c1OC(=O)C)OC(=O)C,Alfa Aesar
2104,214055.0,,,2105.0,http://www.alfa.com/en/GP100W.pgm?DSSTK=A13365,57.0,"2-bromo-3',4'-dichloroacetophenone",c1cc(c(cc1C(=O)CBr)Cl)Cl,Alfa Aesar
6319,60524.0,,,6320.0,http://www.alfa.com/en/GP100W.pgm?DSSTK=A10802,62.0,acetone oxime,CC(=NO)C,Alfa Aesar
16110,6283.0,,,16111.0,http://msds.chem.ox.ac.uk/,-20.0,"S,S'-1,4-Dioxane-2,3-diyl O,O,O',O'-tetraethyl bis(phosphorodithioate)",S=P(SC1OCCOC1SP(=S)(OCC)OCC)(OCC)OCC,academic website
908,746406.0,,,909.0,http://www.alfa.com/en/GP100W.pgm?DSSTK=A15897,183.0,"(1S,2R)-10,2-camphorsultam",CC1([C@@H]2CC[C@]13CS(=O)(=O)N[C@@H]3C2)C,Alfa Aesar
19865,9642.0,,,19866.0,http://www.srcinc.com/what-we-do/product.aspx?id=133,-136.2,"1,2-propadiene",C=C=C,PHYSPROP
26751,21106028.0,,,26752.0,http://www.srcinc.com/what-we-do/product.aspx?id=133,29.5,"benzenamine, 4-methoxy-2-methyl-",Nc1ccc(OC)cc1C,PHYSPROP
27190,21174608.0,,,27191.0,http://scripts.iucr.org/cgi-bin/paper?ci6299,157.85,"Methyl [(1S)-1-hydroxy-1-(3-nitrophenyl)-3-oxo-1,3-dihydro-2H-isoindol-2-yl]acetate",[O-][N+](=O)c1cccc(c1)[C@]2(O)c3ccccc3C(=O)N2CC(=O)OC,IUCr
16145,13842838.0,,,16146.0,http://msds.chem.ox.ac.uk/,14.0,Tetranitromethane,O=[N+]([O-])C([N+]([O-])=O)([N+](=O)[O-])[N+]([O-])=O,academic website
10315,2036519.0,,,10316.0,http://dx.doi.org/10.1021/ci0500132,231.0,4-nitro-1-(4-nitrophenyl)-3-phenyl-1H-pyrazole,O=[N+]([O-])c1ccc([nH0]2[nH0]c(c3ccccc3)c([N+](=O)[O-])c2)cc1,Karthikeyan M.; Glen R.C.; Bender A. General melting point prediction based on a diverse compound dataset and artificial neural networks. J. Chem. Inf. Model.; 2005; 45(3); 581-1898
15638,7557.0,,,15639.0,http://msds.chem.ox.ac.uk/,-113.0,"Buta-1,3-diene",C=CC=C,academic website
9516,4725797.0,,,9517.0,http://dx.doi.org/10.1021/ci0500132,170.0,"(2Z)-[(4-bromophenyl)hydrazono](4-phenyl-1,3-thiazol-2-yl)ethanenitrile",Brc1ccc(NN=C(C#N)c2scc([nH0]2)c2ccccc2)cc1,Karthikeyan M.; Glen R.C.; Bender A. General melting point prediction based on a diverse compound dataset and artificial neural networks. J. Chem. Inf. Model.; 2005; 45(3); 581-1099
24370,82710.0,,,24371.0,http://www.srcinc.com/what-we-do/product.aspx?id=133,132.0,fluotrimazole,FC(F)(F)c1cc(ccc1)C(c2ccccc2)(c3ccccc3)n4cncn4,PHYSPROP
20287,8058.0,x,clearly out of range JCB,20288.0,http://www.srcinc.com/what-we-do/product.aspx?id=133,130.5,phenyl 2-hydroxybenzoate,Oc2ccccc2C(=O)Oc1ccccc1,PHYSPROP
10538,2035438.0,,,10539.0,http://dx.doi.org/10.1021/ci0500132,238.0,"5-[(4-Hydroxyphenyl)hydrazono]-2,2-dimethyl-1,3-dioxane-4,6-dione",O=C1OC(OC(=O)C1=NNc1ccc(O)cc1)(C)C,Karthikeyan M.; Glen R.C.; Bender A. General melting point prediction based on a diverse compound dataset and artificial neural networks. J. Chem. Inf. Model.; 2005; 45(3); 581-2121
17153,3584.0,,,17154.0,http://dx.doi.org/10.1021/ci700307p,159.8,indomethacin,Clc1ccc(cc1)C(=O)n3c2ccc(cc2c(CC(=O)O)c3C)OC,Hughes LD; Palmer DS; Nigsch F and Mitchell JBO. 2008 Why are some properties more difficult to predict than others? A study of QSPR models of solubility; melting point and LogP. J. Chem. Inf. Model. 2008. 48 (1). pp 220?301