,csid,donotuse,donotusebecause,key,link,mpC,name,smiles,source
18493,14609.0,,,18494.0,http://www.srcinc.com/what-we-do/product.aspx?id=133,76.5,2-amino-5-methylpyridine,Cc1cnc(N)cc1,PHYSPROP
25838,4945182.0,,,25839.0,http://www.srcinc.com/what-we-do/product.aspx?id=133,60.5,chlorofumaronitrile,N#CC=C(Cl)C#N,PHYSPROP
22272,1169.0,x,salt - AL,22273.0,http://www.srcinc.com/what-we-do/product.aspx?id=133,172.5,methamphetamine hydrochloride,CC(NC)Cc1ccccc1,PHYSPROP
7155,8490.0,,,7156.0,http://www.alfa.com/en/GP100W.pgm?DSSTK=A15493,-71.0,ethyl acrylate,CCOC(=O)C=C,Alfa Aesar
23195,61371.0,,,23196.0,http://www.srcinc.com/what-we-do/product.aspx?id=133,83.0,"benzenesulfonamide, n,n-dichloro-4-methyl-",Cc1ccc(cc1)S(=O)(=O)N(Cl)Cl,PHYSPROP
4230,3088392.0,,,4231.0,http://www.alfa.com/en/GP100W.pgm?DSSTK=L17485,147.0,4-(2-carboxyethyl)benzeneboronic acid,B(c1ccc(cc1)CCC(=O)O)(O)O,Alfa Aesar
28607,5355.0,,,28608.0,http://www.aapspharmscitech.org/view.asp?art=pt070126,224.0,triazolam,Clc4ccccc4C/2=N/Cc1nnc(n1c3c\2cc(Cl)cc3)C,Sepassi K; Yalkowsky SH AAPS PharmSciTech; 7(1); E1-E8 (2006)
8366,6695.0,,,8367.0,http://www.alfa.com/en/GP100W.pgm?DSSTK=B23099,283.0,pyromellitic acid,c1c(c(cc(c1C(=O)O)C(=O)O)C(=O)O)C(=O)O,Alfa Aesar
28623,21106009.0,,,28624.0,http://usefulchem.wikispaces.com/exp108,147.0,Ugi product 108C (UC),O=C(CNC(=O)OC(C)(C)C)N(Cc1ccco1)C(c2ccccc2)C(=O)NCc3ccccc3,UsefulChem
18501,14582.0,,,18502.0,http://www.srcinc.com/what-we-do/product.aspx?id=133,63.5,alpha-hydroxycyclohexylbenzene,OC1(CCCCC1)c2ccccc2,PHYSPROP
19869,9614.0,,,19870.0,http://www.srcinc.com/what-we-do/product.aspx?id=133,-42.2,fluorobenzene,Fc1ccccc1,PHYSPROP
940,6864.0,,,941.0,http://www.alfa.com/en/GP100W.pgm?DSSTK=A11636,74.0,2-(2-naphthoxy)ethanol,c1ccc2cc(ccc2c1)OCCO,Alfa Aesar
14744,72531.0,,,14745.0,http://msds.chem.ox.ac.uk/,-106.0,(~2~H_8_)Tetrahydrofuran,[2H]C1([2H])C([2H])([2H])C([2H])([2H])OC1([2H])[2H],academic website
1865,453232.0,,,1866.0,http://www.alfa.com/en/GP100W.pgm?DSSTK=B20967,78.0,2-acetyl-3-methylbenzo[b]thiophene,Cc1c2ccccc2sc1C(=O)C,Alfa Aesar
11960,2029680.0,,,11961.0,http://dx.doi.org/10.1021/ci0500132,133.0,"6-methoxy-1-methyl-1,2,3,4-tetrahydronaphthalene-2-carboxylic acid",O=C(O)C1CCc2cc(OC)ccc2C1C,Karthikeyan M.; Glen R.C.; Bender A. General melting point prediction based on a diverse compound dataset and artificial neural networks. J. Chem. Inf. Model.; 2005; 45(3); 581-3543
19348,11238.0,,,19349.0,http://www.srcinc.com/what-we-do/product.aspx?id=133,-50.0,3-methyl-2-butanamine,CC(C)C(C)N,PHYSPROP
21762,3922.0,,,21763.0,http://www.srcinc.com/what-we-do/product.aspx?id=133,150.5,"2-piperidinecarboxamide, n-(2,6-dimethylphenyl)-",O=C(Nc1c(C)cccc1C)C2CCCCN2C,PHYSPROP
23909,68173.0,,,23910.0,http://www.srcinc.com/what-we-do/product.aspx?id=133,132.0,"benzoic acid, 2,4-dihydroxy-6-methyl-, ethyl est",Oc1cc(O)cc(C)c1C(=O)OCC,PHYSPROP
27629,6988.0,,,27630.0,http://www.sigmaaldrich.com/united-states.html,66.0,"3,4-dichlorophenol",Clc1ccc(O)cc1Cl,Sigma-Aldrich
10719,2034566.0,,,10720.0,http://dx.doi.org/10.1021/ci0500132,190.0,"5-methyl-3-[(E)-(2,4,6-trichlorophenyl)diazenyl]-7-(trifluoromethyl)pyrazolo[1,5-a]pyrimidin-2-amine",Clc1cc(Cl)c(N=Nc2c3N=C(C)C=C([nH0]3[nH0]c2N)C(F)(F)F)c(Cl)c1,Karthikeyan M.; Glen R.C.; Bender A. General melting point prediction based on a diverse compound dataset and artificial neural networks. J. Chem. Inf. Model.; 2005; 45(3); 581-2302
26021,10438694.0,,,26022.0,http://www.srcinc.com/what-we-do/product.aspx?id=133,78.5,"benzenesulfonamide, 4-(4-hydroxybutyl)-",O=S(N)(=O)c1ccc(CCCCO)cc1,PHYSPROP
7393,229042.0,,,7394.0,http://www.alfa.com/en/GP100W.pgm?DSSTK=L19637,280.0,isoquinoline-5-carboxylic acid,c1cc2cnccc2c(c1)C(=O)O,Alfa Aesar
2433,71611.0,,,2434.0,http://www.alfa.com/en/GP100W.pgm?DSSTK=L17059,164.0,2-chloro-6-nitrobenzoic acid,c1cc(c(c(c1)Cl)C(=O)O)[N+](=O)[O-],Alfa Aesar
20548,7559.0,,,20549.0,http://www.srcinc.com/what-we-do/product.aspx?id=133,-87.7,acrolein,C=CC=O,PHYSPROP
7904,2006692.0,,,7905.0,http://www.alfa.com/en/GP100W.pgm?DSSTK=A15101,164.0,N-amidinothiourea,C(=N)(N)NC(=S)N,Alfa Aesar
21100,6464.0,,,21101.0,http://www.srcinc.com/what-we-do/product.aspx?id=133,144.0,pentachloronitrobenzene,Clc1c(c(Cl)c(Cl)c(Cl)c1Cl)[N+]([O-])=O,PHYSPROP
12355,591447.0,,,12356.0,http://dx.doi.org/10.1021/ci0500132,104.0,"2-[(2-ethylanilino)methyl]isoindoline-1,3-dione",O=C1N(CNc2ccccc2CC)C(=O)c2ccccc21,Karthikeyan M.; Glen R.C.; Bender A. General melting point prediction based on a diverse compound dataset and artificial neural networks. J. Chem. Inf. Model.; 2005; 45(3); 581-3938
22143,2229.0,,,22144.0,http://www.srcinc.com/what-we-do/product.aspx?id=133,66.0,benefin,[O-][N+](=O)c1cc(cc([N+]([O-])=O)c1N(CCCC)CC)C(F)(F)F,PHYSPROP
22591,35060.0,,,22592.0,http://www.srcinc.com/what-we-do/product.aspx?id=133,273.0,"1,2,3,4,7,8-hexachlorodibenzo-p-dioxin",Clc1cc2Oc3c(Cl)c(Cl)c(Cl)c(Cl)c3Oc2cc1Cl,PHYSPROP
18814,12705.0,,,18815.0,http://www.srcinc.com/what-we-do/product.aspx?id=133,88.0,ametryne,CSc1nc(NCC)nc(NC(C)C)n1,PHYSPROP
6028,21241262.0,,,6029.0,http://www.alfa.com/en/GP100W.pgm?DSSTK=L20415,105.0,5-tert-butyl-2-methoxybenzeneboronic acid,B(c1cc(ccc1OC)C(C)(C)C)(O)O,Alfa Aesar
11402,2031763.0,,,11403.0,http://dx.doi.org/10.1021/ci0500132,332.0,"N,N'-(ethyne-1,2-diyldibenzene-4,1-diyl)dibenzamide",O=C(Nc1ccc(C#Cc2ccc(NC(=O)c3ccccc3)cc2)cc1)c1ccccc1,Karthikeyan M.; Glen R.C.; Bender A. General melting point prediction based on a diverse compound dataset and artificial neural networks. J. Chem. Inf. Model.; 2005; 45(3); 581-2985
11592,2030978.0,,,11593.0,http://dx.doi.org/10.1021/ci0500132,247.0,"4,4'-[benzene-1,4-diyldi(E)diazene-2,1-diyl]dianiline",Nc1ccc(N=Nc2ccc(N=Nc3ccc(N)cc3)cc2)cc1,Karthikeyan M.; Glen R.C.; Bender A. General melting point prediction based on a diverse compound dataset and artificial neural networks. J. Chem. Inf. Model.; 2005; 45(3); 581-3175
18338,15432.0,,,18339.0,http://www.srcinc.com/what-we-do/product.aspx?id=133,-52.5,2-bromostyrene,C=Cc1ccccc1Br,PHYSPROP
889,643329.0,,,890.0,http://www.alfa.com/en/GP100W.pgm?DSSTK=A19658,78.0,(4-fluorophenylthio)acetic acid,c1cc(ccc1F)SCC(=O)O,Alfa Aesar
5506,6703.0,,,5507.0,http://www.alfa.com/en/GP100W.pgm?DSSTK=A12040,202.0,4-nitrophthalimide,c1cc2c(cc1[N+](=O)[O-])C(=O)NC2=O,Alfa Aesar
20918,6823.0,,,20919.0,http://www.srcinc.com/what-we-do/product.aspx?id=133,126.0,1-phenyl-3-pyrazolidinone,O=C1CCN(N1)c2ccccc2,PHYSPROP
13349,7823.0,,,13350.0,http://www.amazon.com/dp/B002IYRJWI,-122.0,propyl_ether,CCCOCCC,American Petroleum Institute. Research Project 44; Selected Values of Properties of Hydrocarbons and Related Compounds. Texas A & M University; College Station; TX; 1973.
7647,2079069.0,,,7648.0,http://www.alfa.com/en/GP100W.pgm?DSSTK=A13769,70.0,methyl benzo[b]thiophene-2-carboxylate,COC(=O)c1cc2ccccc2s1,Alfa Aesar
25311,558309.0,,,25312.0,http://www.srcinc.com/what-we-do/product.aspx?id=133,61.0,3-chlorocrotonic acid,C/C(Cl)=C/C(=O)O,PHYSPROP
2690,21242458.0,,,2691.0,http://www.alfa.com/en/GP100W.pgm?DSSTK=H27751,192.0,2-hydroxy-3-iodo-5-methylpyridine,Cc1cc(c(nc1)O)I,Alfa Aesar
3693,89103.0,,,3694.0,http://www.alfa.com/en/GP100W.pgm?DSSTK=A15274,51.0,3-bromo-4-methoxybenzaldehyde,COc1ccc(cc1Br)C=O,Alfa Aesar
2578,512323.0,,,2579.0,http://www.alfa.com/en/GP100W.pgm?DSSTK=A19997,25.0,2-fluoro-3-(trifluoromethyl)benzyl alcohol,c1cc(c(c(c1)C(F)(F)F)F)CO,Alfa Aesar
24605,92890.0,,,24606.0,http://www.srcinc.com/what-we-do/product.aspx?id=133,-149.6,"cyclopropane, 1,2-dimethyl-, trans-",CC1CC1C,PHYSPROP
447,13866593.0,,,448.0,http://www.alfa.com/en/GP100W.pgm?DSSTK=B23039,9.0,"1,5-diaminopentane",C(CCN)CCN,Alfa Aesar
4679,2053713.0,,,4680.0,http://www.alfa.com/en/GP100W.pgm?DSSTK=L18516,225.0,"4-bromo-2,3-difluorobenzeneboronic acid",B(c1ccc(c(c1F)F)Br)(O)O,Alfa Aesar
5552,20483879.0,,,5553.0,http://www.alfa.com/en/GP100W.pgm?DSSTK=A18612,83.0,4-phenylazodiphenylamine,c1ccc(cc1)Nc2ccc(cc2)N=Nc3ccccc3,Alfa Aesar
11171,2032745.0,,,11172.0,http://dx.doi.org/10.1021/ci0500132,39.0,ethyl 5-methoxypyridine-2-carboxylate,O=C(OCC)c1[nH0]cc(OC)cc1,Karthikeyan M.; Glen R.C.; Bender A. General melting point prediction based on a diverse compound dataset and artificial neural networks. J. Chem. Inf. Model.; 2005; 45(3); 581-2754
27905,5730.0,,,27906.0,http://datasheets.scbt.com/sc-239479.pdf,-23.0,carbon tetrachloride,ClC(Cl)(Cl)Cl,Santa Cruz Biotechnology
3140,69077.0,,,3141.0,http://www.alfa.com/en/GP100W.pgm?DSSTK=A18210,149.0,3-(4-methoxybenzoyl)propionic acid,COc1ccc(cc1)C(=O)CCC(=O)O,Alfa Aesar
778,9131833.0,,,779.0,http://www.alfa.com/en/GP100W.pgm?DSSTK=B22320,85.0,1-(p-toluenesulfonyl)indole,Cc1ccc(cc1)S(=O)(=O)n2ccc3c2cccc3,Alfa Aesar
2424,2015257.0,,,2425.0,http://www.alfa.com/en/GP100W.pgm?DSSTK=B21814,175.0,2-chloro-6-methyl-4-nitroaniline,Cc1cc(cc(c1N)Cl)[N+](=O)[O-],Alfa Aesar
875,265587.0,,,876.0,http://www.alfa.com/en/GP100W.pgm?DSSTK=A11422,71.0,(pentafluorophenyl)diphenylphosphine,c1ccc(cc1)P(c2ccccc2)c3c(c(c(c(c3F)F)F)F)F,Alfa Aesar
28230,190756.0,,,28231.0,http://tinyurl.com/43f6jx2,33.0,"meso-2,3-butanediol",O[C@@H](C)[C@H](O)C,Sigma-Aldrich
3733,67228.0,,,3734.0,http://www.alfa.com/en/GP100W.pgm?DSSTK=B20758,101.0,3-bromophenylacetic acid,c1cc(cc(c1)Br)CC(=O)O,Alfa Aesar
7994,558593.0,,,7995.0,http://www.alfa.com/en/GP100W.pgm?DSSTK=L09885,61.0,N-boc-L-prolinol,CC(C)(C)OC(=O)N1CCC[C@H]1CO,Alfa Aesar
5217,1041321.0,,,5218.0,http://www.alfa.com/en/GP100W.pgm?DSSTK=43873,251.0,4-hydroxy-6-(trifluoromethyl)pyrimidine-2-thiol,c1c(nc(nc1O)S)C(F)(F)F,Alfa Aesar
218,12809.0,,,219.0,http://www.alfa.com/en/GP100W.pgm?DSSTK=31213,-66.0,1-decene,CCCCCCCCC=C,Alfa Aesar
11561,2031068.0,,,11562.0,http://dx.doi.org/10.1021/ci0500132,211.0,"N,N'-(buta-1,3-diyne-1,4-diyldibenzene-2,1-diyl)dibenzamide",O=C(Nc1ccccc1C#CC#Cc1ccccc1NC(=O)c1ccccc1)c1ccccc1,Karthikeyan M.; Glen R.C.; Bender A. General melting point prediction based on a diverse compound dataset and artificial neural networks. J. Chem. Inf. Model.; 2005; 45(3); 581-3144
2555,7080.0,,,2556.0,http://www.alfa.com/en/GP100W.pgm?DSSTK=B21026,-52.0,2-ethyl-1-butanol,CCC(CC)CO,Alfa Aesar
14286,19207.0,,,14287.0,http://www.amazon.com/dp/B003XEQTLE,83.0,mono-methyl_phthalate,COC(=O)c1ccccc1C(=O)O,Aldrich Chemical Company; Aldrich Catalog-Handbook of Fine Chemicals; Milwaukee; WI; 1984.
20989,6695.0,,,20990.0,http://www.srcinc.com/what-we-do/product.aspx?id=133,276.0,pyromellitic acid,OC(=O)c1cc(c(cc1C(=O)O)C(=O)O)C(=O)O,PHYSPROP
4913,71903.0,,,4914.0,http://www.alfa.com/en/GP100W.pgm?DSSTK=A15121,98.0,4'-chloro-3'-nitroacetophenone,CC(=O)c1ccc(c(c1)[N+](=O)[O-])Cl,Alfa Aesar
12809,62546.0,,,12810.0,http://dx.doi.org/10.1021/ci0500132,178.0,N-(Methylcarbamoyl)acetamid,O=C(NC)NC(=O)C,Karthikeyan M.; Glen R.C.; Bender A. General melting point prediction based on a diverse compound dataset and artificial neural networks. J. Chem. Inf. Model.; 2005; 45(3); 581-4392
16329,3531.0,,,16330.0,http://www.drugbank.ca/drugs/DB00557,190.0,Hydroxyzine,Clc1ccc(cc1)C(c2ccccc2)N3CCN(CC3)CCOCCO,DrugBank
7313,5551.0,,,7314.0,http://www.alfa.com/en/GP100W.pgm?DSSTK=A16292,214.0,hydrocortisone,C[C@]12CCC(=O)C=C1CC[C@@H]3[C@@H]2[C@H](C[C@]4([C@H]3CC[C@@]4(C(=O)CO)O)C)O,Alfa Aesar
24438,83710.0,,,24439.0,http://www.srcinc.com/what-we-do/product.aspx?id=133,184.5,laudanidine,COc1ccc(cc1O)CC2c3cc(OC)c(cc3CCN2C)OC,PHYSPROP
11534,2031158.0,,,11535.0,http://dx.doi.org/10.1021/ci0500132,171.0,N-{3-[(2-oxo-2-phenylethyl)amino]phenyl}acetamide,O=C(Nc1cccc(NCC(=O)c2ccccc2)c1)C,Karthikeyan M.; Glen R.C.; Bender A. General melting point prediction based on a diverse compound dataset and artificial neural networks. J. Chem. Inf. Model.; 2005; 45(3); 581-3117
1945,2054031.0,,,1946.0,http://www.alfa.com/en/GP100W.pgm?DSSTK=H25997,100.0,2-amino-4-chloro-6-isopropylpyrimidine,CC(C)c1cc(nc(n1)N)Cl,Alfa Aesar
2591,510445.0,,,2592.0,http://www.alfa.com/en/GP100W.pgm?DSSTK=H26218,169.0,2-fluoro-4-hydroxybenzaldehyde,c1cc(c(cc1O)F)C=O,Alfa Aesar
37,15517.0,,,38.0,http://www.alfa.com/en/GP100W.pgm?DSSTK=A12942,131.0,1-methylisatin,CN1c2ccccc2C(=O)C1=O,Alfa Aesar
10606,2034805.0,,,10607.0,http://dx.doi.org/10.1021/ci0500132,246.0,"3-[(E)-(3-nitrophenyl)diazenyl]-5-thiophen-2-yl-7-(trifluoromethyl)pyrazolo[1,5-a]pyrimidin-2-amine",s1cccc1C1=Nc2[nH0]([nH0]c(N)c2N=Nc2cccc([N+](=O)[O-])c2)C(=C1)C(F)(F)F,Karthikeyan M.; Glen R.C.; Bender A. General melting point prediction based on a diverse compound dataset and artificial neural networks. J. Chem. Inf. Model.; 2005; 45(3); 581-2189
14191,16208.0,,,14192.0,http://www.amazon.com/dp/B003XEQTLE,95.0,2-chlorophenylacetic_acid,Clc1ccccc1CC(=O)O,Aldrich Chemical Company; Aldrich Catalog-Handbook of Fine Chemicals; Milwaukee; WI; 1984.
16369,10368587.0,,,16370.0,http://www.drugbank.ca/drugs/DB01229,214.5,Paclitaxel,O=C(N[C@@H](c1ccccc1)[C@@H](O)C(=O)O[C@H]3C[C@@]4(O)[C@@H](OC(=O)c2ccccc2)[C@H]5[C@](C)(C(=O)[C@H](OC(C)=O)C(=C3C)C4(C)C)[C@@H](O)C[C@H]6OC[C@@]56OC(C)=O)c7ccccc7,DrugBank
27022,23351438.0,,,27023.0,http://www.srcinc.com/what-we-do/product.aspx?id=133,55.5,"o-acetotoluidide, n-methyl-",Cc1ccccc1N(C)C(C)=O,PHYSPROP
17100,5787.0,,,17101.0,http://dx.doi.org/10.1021/ci700307p,108.0,aminopyrine,CN(C)C=2C(=O)N(c1ccccc1)N(C)C=2C,Hughes LD; Palmer DS; Nigsch F and Mitchell JBO. 2008 Why are some properties more difficult to predict than others? A study of QSPR models of solubility; melting point and LogP. J. Chem. Inf. Model. 2008. 48 (1). pp 220?248
3307,109674.0,,,3308.0,http://www.alfa.com/en/GP100W.pgm?DSSTK=A15832,20.0,"3',4'-difluoroacetophenone",CC(=O)c1ccc(c(c1)F)F,Alfa Aesar
1313,21159742.0,,,1314.0,http://www.alfa.com/en/GP100W.pgm?DSSTK=A19992,29.0,"2,3-dimethylanisole",Cc1cccc(c1C)OC,Alfa Aesar
4175,8306089.0,,,4176.0,http://www.alfa.com/en/GP100W.pgm?DSSTK=H32879,141.0,3-phenoxybenzeneboronic acid,B(c1cccc(c1)Oc2ccccc2)(O)O,Alfa Aesar
15872,7128.0,,,15873.0,http://msds.chem.ox.ac.uk/,-96.0,Isopropylbenzene,CC(C)c1ccccc1,academic website
15835,8067.0,,,15836.0,http://msds.chem.ox.ac.uk/,228.0,Hexachlorobenzene,Clc1c(Cl)c(Cl)c(Cl)c(Cl)c1Cl,academic website
1788,70764.0,,,1789.0,http://www.alfa.com/en/GP100W.pgm?DSSTK=H27860,197.0,"2,6-dihydroxy-4-methylpyridine",Cc1cc(nc(c1)O)O,Alfa Aesar
19761,9998.0,,,19762.0,http://www.srcinc.com/what-we-do/product.aspx?id=133,98.0,methanedisulfonic acid,O=S(=O)(O)CS(=O)(=O)O,PHYSPROP
19373,11173.0,,,19374.0,http://www.srcinc.com/what-we-do/product.aspx?id=133,10.5,"1,2-dibromo-2-methylpropane",CC(C)C(Br)Br,PHYSPROP
24825,154937.0,,,24826.0,http://www.srcinc.com/what-we-do/product.aspx?id=133,213.5,"1-(2,5-dichloro),2-dibenzoyl-1-tert-butylhydrazi",O=C(c1cc(Cl)ccc1Cl)N(NC(=O)c2ccccc2)C(C)(C)C,PHYSPROP
18480,14680.0,,,18481.0,http://www.srcinc.com/what-we-do/product.aspx?id=133,-43.0,1-heptanethiol,CCCCCCCS,PHYSPROP
9707,4645365.0,,,9708.0,http://dx.doi.org/10.1021/ci0500132,260.0,"(2Z)-[(2,5-dimethylphenyl)hydrazono](1-methyl-1H-benzimidazol-2-yl)ethanenitrile",N#CC(=NNc1cc(C)ccc1C)c1[nH0]c2ccccc2[nH0]1C,Karthikeyan M.; Glen R.C.; Bender A. General melting point prediction based on a diverse compound dataset and artificial neural networks. J. Chem. Inf. Model.; 2005; 45(3); 581-1290
19034,11897.0,,,19035.0,http://www.srcinc.com/what-we-do/product.aspx?id=133,40.5,heneicosane,CCCCCCCCCCCCCCCCCCCCC,PHYSPROP
2767,558584.0,,,2768.0,http://www.alfa.com/en/GP100W.pgm?DSSTK=L17446,37.0,2-iodobenzaldehyde,c1ccc(c(c1)C=O)I,Alfa Aesar
19548,10694.0,,,19549.0,http://www.srcinc.com/what-we-do/product.aspx?id=133,36.0,methyl isothiocyanate,CN=C=S,PHYSPROP
17671,23198.0,,,17672.0,http://www.srcinc.com/what-we-do/product.aspx?id=133,1.25,phosphorus oxychloride,ClP(Cl)(Cl)=O,PHYSPROP
14814,4447565.0,,,14815.0,http://msds.chem.ox.ac.uk/,-61.5,(3E)-Hex-3-en-1-ol,CCC=CCCO,academic website
12776,66915.0,,,12777.0,http://dx.doi.org/10.1021/ci0500132,70.0,"3,3-dimethyl-2-benzofuran-1(3H)-one",O=C1OC(C)(C)c2ccccc21,Karthikeyan M.; Glen R.C.; Bender A. General melting point prediction based on a diverse compound dataset and artificial neural networks. J. Chem. Inf. Model.; 2005; 45(3); 581-4359
17744,21896.0,,,17745.0,http://www.srcinc.com/what-we-do/product.aspx?id=133,-48.9,2-methyldecane,CCCCCCCCC(C)C,PHYSPROP
1430,3838711.0,,,1431.0,http://www.alfa.com/en/GP100W.pgm?DSSTK=L18713,83.0,"2,4-dibromophenyl isocyanate",c1cc(c(cc1Br)Br)N=C=O,Alfa Aesar
10575,2034910.0,,,10576.0,http://dx.doi.org/10.1021/ci0500132,151.0,"3-(2-naphthalen-2-ylhydrazino)-4-(trifluoromethyl)-2H-1,5-benzodiazepin-2-one",FC(F)(F)C=1N=C2C=CC=CC2=NC(=O)C=1NNc1ccc2ccccc2c1,Karthikeyan M.; Glen R.C.; Bender A. General melting point prediction based on a diverse compound dataset and artificial neural networks. J. Chem. Inf. Model.; 2005; 45(3); 581-2158
8842,3635.0,,,8843.0,http://dx.doi.org/10.1021/ci020280x,171.0,isoniazid,NNC(=O)c1ccncc1,Bergstrom C. A. S.; Norinder U.; Luthman K.; Artursson P. Molecular Descriptors Influencing Melting Point and Their Role in Classification of Solid Drugs. J. Chem. Inf. Comput. Sci.; (Article); 2003; 43(4); 1177-1289
24786,124512.0,,,24787.0,http://www.srcinc.com/what-we-do/product.aspx?id=133,41.0,"[1,1'-biphenyl]-2-carbonitrile",N#Cc2ccccc2c1ccccc1,PHYSPROP
601,264937.0,,,602.0,http://www.alfa.com/en/GP100W.pgm?DSSTK=L10516,-53.0,"1,3-cyclooctadiene",C1C/C=CC=C/CC1,Alfa Aesar
8786,5899.0,,,8787.0,http://dx.doi.org/10.1021/ci020280x,142.0,carbaryl,CNC(=O)Oc1cccc2ccccc12,Bergstrom C. A. S.; Norinder U.; Luthman K.; Artursson P. Molecular Descriptors Influencing Melting Point and Their Role in Classification of Solid Drugs. J. Chem. Inf. Comput. Sci.; (Article); 2003; 43(4); 1177-1233
29,6601.0,,,30.0,http://www.alfa.com/en/GP100W.pgm?DSSTK=A11069,130.0,1-naphthylacetic acid,c1ccc2c(c1)cccc2CC(=O)O,Alfa Aesar
21927,3186.0,,,21928.0,http://www.srcinc.com/what-we-do/product.aspx?id=133,77.0,ethylestrenol,CC32CCC1C4CCCC=C4CCC1C3CCC2(O)CC,PHYSPROP
11153,2032883.0,,,11154.0,http://dx.doi.org/10.1021/ci0500132,243.0,"9,11-dimethyl-12-oxo-12H-quino[1,2-b][2,7]naphthyridine-7-carbonitrile",O=C1N2c3ccccc3C=CC2=C(C#N)c2cc([nH0]c(C)c12)C,Karthikeyan M.; Glen R.C.; Bender A. General melting point prediction based on a diverse compound dataset and artificial neural networks. J. Chem. Inf. Model.; 2005; 45(3); 581-2736
13715,7183.0,,,13716.0,http://www.amazon.com/dp/B002IYRJWI,-68.0,1-methyl-4-isopropylbenzene,Cc1ccc(cc1)C(C)C,American Petroleum Institute. Research Project 44; Selected Values of Properties of Hydrocarbons and Related Compounds. Texas A & M University; College Station; TX; 1973.
847,8465.0,,,848.0,http://www.alfa.com/en/GP100W.pgm?DSSTK=A10154,-19.0,1-(2-aminoethyl)piperazine,C1CN(CCN1)CCN,Alfa Aesar
12827,61399.0,,,12828.0,http://dx.doi.org/10.1021/ci0500132,82.0,Pentamethylbenzyl chloride,ClCc1c(C)c(C)c(C)c(C)c1C,Karthikeyan M.; Glen R.C.; Bender A. General melting point prediction based on a diverse compound dataset and artificial neural networks. J. Chem. Inf. Model.; 2005; 45(3); 581-4410
7016,5023255.0,,,7017.0,http://www.alfa.com/en/GP100W.pgm?DSSTK=A13205,168.0,"endo-n-hydroxy-5-norbornene-2,3-dicarboximide",C1[C@@H]2C=C[C@H]1[C@@H]3[C@H]2C(=O)N(C3=O)O,Alfa Aesar
7382,8567.0,,,7383.0,http://www.alfa.com/en/GP100W.pgm?DSSTK=L04276,12.0,isopropyl palmitate,CCCCCCCCCCCCCCCC(=O)OC(C)C,Alfa Aesar
16180,8157.0,,,16181.0,http://msds.chem.ox.ac.uk/,-34.0,Trimethyl borate,COB(OC)OC,academic website
9222,10482440.0,,,9223.0,http://dx.doi.org/10.1021/ci0500132,222.0,4-hydroxy-1-phenyl-3-[(1E)-N-(pyridin-3-ylmethyl)ethanimidoyl]quinolin-2(1H)-one,O=C1N(c2ccccc2)c2ccccc2C(O)=C1C(=NCc1c[nH0]ccc1)C,Karthikeyan M.; Glen R.C.; Bender A. General melting point prediction based on a diverse compound dataset and artificial neural networks. J. Chem. Inf. Model.; 2005; 45(3); 581-805
23757,66547.0,,,23758.0,http://www.srcinc.com/what-we-do/product.aspx?id=133,127.25,"butanoic acid, 4-benzoyl-",O=C(CCCC(=O)O)c1ccccc1,PHYSPROP