,csid,donotuse,donotusebecause,key,link,mpC,name,smiles,source
8415,8412.0,,,8416.0,http://www.alfa.com/en/GP100W.pgm?DSSTK=L04848,186.0,shikimic acid,C1[C@H]([C@@H]([C@@H](C=C1C(=O)O)O)O)O,Alfa Aesar
11114,2033343.0,x,salt - AL,11115.0,http://dx.doi.org/10.1021/ci0500132,220.0,"2-methyl-5-azoniaspiro[4.4]nona-2,7-diene 2,4,6-trinitrophenolate",O=[N+]([O-])c1cc([N+](=O)[O-])c([O-])c([N+](=O)[O-])c1.[N+]12(CC=CC1)CC=C(C)C2,Karthikeyan M.; Glen R.C.; Bender A. General melting point prediction based on a diverse compound dataset and artificial neural networks. J. Chem. Inf. Model.; 2005; 45(3); 581-2697
7271,737.0,,,7272.0,http://www.alfa.com/en/GP100W.pgm?DSSTK=A12511,77.0,glycolic acid,C(C(=O)O)O,Alfa Aesar
25307,557415.0,,,25308.0,http://www.srcinc.com/what-we-do/product.aspx?id=133,2.0,"1,4-dichloro-2-butene(trans)",ClCC=CCCl,PHYSPROP
11866,2029934.0,,,11867.0,http://dx.doi.org/10.1021/ci0500132,155.0,"N-(4-acetylphenyl)-2,2,3,3,4,4,5,5,6,6,7,7,8,8,9,9,9-heptadecafluorononanamide",FC(F)(F)C(F)(F)C(F)(F)C(F)(F)C(F)(F)C(F)(F)C(F)(F)C(F)(F)C(=O)Nc1ccc(cc1)C(=O)C,Karthikeyan M.; Glen R.C.; Bender A. General melting point prediction based on a diverse compound dataset and artificial neural networks. J. Chem. Inf. Model.; 2005; 45(3); 581-3449
19371,11178.0,,,19372.0,http://www.srcinc.com/what-we-do/product.aspx?id=133,-17.0,ethanesulfonic acid,CCS(=O)(=O)O,PHYSPROP
9289,7855532.0,,,9290.0,http://dx.doi.org/10.1021/ci0500132,262.0,"(2E)-1-(2,4-dinitrophenyl)-2-({2-[(E)-2-phenylethenyl]cyclohex-1-en-1-yl}methylidene)hydrazine",O=[N+]([O-])c1ccc(NN=CC=2CCCCC=2C=Cc2ccccc2)c([N+](=O)[O-])c1,Karthikeyan M.; Glen R.C.; Bender A. General melting point prediction based on a diverse compound dataset and artificial neural networks. J. Chem. Inf. Model.; 2005; 45(3); 581-872
4892,72719.0,,,4893.0,http://www.alfa.com/en/GP100W.pgm?DSSTK=B20580,44.0,4-chloro-3-(trifluoromethyl)phenol,c1cc(c(cc1O)C(F)(F)F)Cl,Alfa Aesar
7237,72677.0,,,7238.0,http://www.alfa.com/en/GP100W.pgm?DSSTK=B25020,247.0,fluorene-1-carboxylic acid,c1ccc-2c(c1)Cc3c2cccc3C(=O)O,Alfa Aesar
8670,21321.0,,,8671.0,http://www.alfa.com/en/GP100W.pgm?DSSTK=L01158,166.0,triphenylacrylonitrile,c1ccc(cc1)C(=C(c2ccccc2)c3ccccc3)C#N,Alfa Aesar
2919,12464.0,,,2920.0,http://www.alfa.com/en/GP100W.pgm?DSSTK=A13936,214.0,"2-methylcyclopentane-1,3-dione",CC1C(=O)CCC1=O,Alfa Aesar
14975,69354.0,,,14976.0,http://msds.chem.ox.ac.uk/,107.0,"1,6-Diphenylhexane-1,6-dione",O=C(CCCCC(=O)c1ccccc1)c2ccccc2,academic website
17428,29152.0,,,17429.0,http://www.srcinc.com/what-we-do/product.aspx?id=133,320.0,"1,4,5,8-naphthalenetetracarboxylic acid",O=C(O)c1ccc(c2c(ccc(C(=O)O)c12)C(=O)O)C(=O)O,PHYSPROP
20042,8870.0,,,20043.0,http://www.srcinc.com/what-we-do/product.aspx?id=133,38.0,"1,2-benzisothiazole",c1cccc2sncc12,PHYSPROP
11424,2031668.0,,,11425.0,http://dx.doi.org/10.1021/ci0500132,180.0,"5-Oxo-1-phenyl-4,5-dihydro-1H-1,2,4-triazole-3-carboxylic acid",O=C(O)c1[nH0][nH0](c2ccccc2)c(O)[nH0]1,Karthikeyan M.; Glen R.C.; Bender A. General melting point prediction based on a diverse compound dataset and artificial neural networks. J. Chem. Inf. Model.; 2005; 45(3); 581-3007
18531,14372.0,,,18532.0,http://www.srcinc.com/what-we-do/product.aspx?id=133,37.0,"pyridine, trimethyl-",Cc1ccc(C)c(C)n1,PHYSPROP
25815,4880635.0,,,25816.0,http://www.srcinc.com/what-we-do/product.aspx?id=133,179.5,motretinide,Cc1c(C)c(/C=CC(C)=CC=CC(C)=CC(=O)NCC)c(C)cc1OC,PHYSPROP
21940,3165.0,,,21941.0,http://www.srcinc.com/what-we-do/product.aspx?id=133,100.0,ethaverine,CCOc1ccc(cc1OCC)Cc3nccc2cc(OCC)c(cc23)OCC,PHYSPROP
15787,7732.0,,,15788.0,http://msds.chem.ox.ac.uk/,-115.0,Ethoxyethene,C=COCC,academic website
16524,9072.0,,,16525.0,http://www.drugbank.ca/drugs/DB00928,229.0,Azacitidine,NC1=NC(=O)N(C=N1)[C@@H]2O[C@H](CO)[C@@H](O)[C@H]2O,DrugBank
3409,14622.0,,,3410.0,http://www.alfa.com/en/GP100W.pgm?DSSTK=A13756,39.0,"3,5-dibromotoluene",Cc1cc(cc(c1)Br)Br,Alfa Aesar
26413,13433819.0,,,26414.0,http://www.srcinc.com/what-we-do/product.aspx?id=133,93.0,lupulon,CC(C)CC(=O)C1=C(O)C(CC=C(/C)C)(CC=C(/C)C)C(=O)C(CC=C(/C)C)=C1O,PHYSPROP
26079,10440055.0,,,26080.0,http://www.srcinc.com/what-we-do/product.aspx?id=133,106.5,"glycine, n-[(benzoyloxy)acetyl]-n-methyl-",O=C(O)CN(C)C(=O)COC(=O)c1ccccc1,PHYSPROP
20629,7341.0,,,20630.0,http://www.srcinc.com/what-we-do/product.aspx?id=133,-80.0,"phosphorous acid, tributyl ester",CCCCOP(OCCCC)OCCCC,PHYSPROP
23465,62691.0,,,23466.0,http://www.srcinc.com/what-we-do/product.aspx?id=133,72.0,"octadecanoic acid, anhydride",O=C(CCCCCCCCCCCCCCCCC)OC(=O)CCCCCCCCCCCCCCCCC,PHYSPROP
11229,2032636.0,,,11230.0,http://dx.doi.org/10.1021/ci0500132,135.0,"2,4-dimethyl-4-phenyl-5,6-dihydro-4H-benzo[d]cyclohepta[1,2-b:3,4-b']difuran",o1c2CCC(C)(c3cc(oc3c2c2ccccc12)C)c1ccccc1,Karthikeyan M.; Glen R.C.; Bender A. General melting point prediction based on a diverse compound dataset and artificial neural networks. J. Chem. Inf. Model.; 2005; 45(3); 581-2812
6796,66798.0,,,6797.0,http://www.alfa.com/en/GP100W.pgm?DSSTK=L08813,80.0,dibenzyl phosphate,c1ccc(cc1)COP(=O)(O)OCc2ccccc2,Alfa Aesar
17456,29024.0,,,17457.0,http://www.srcinc.com/what-we-do/product.aspx?id=133,19.0,methyl myristate,O=C(CCCCCCCCCCCCC)OC,PHYSPROP
11652,2030780.0,,,11653.0,http://dx.doi.org/10.1021/ci0500132,278.0,"4,4'-[benzene-1,4-diylbis(1,2-dichloroethane-2,1-diyl)]bis(3-nitrobenzonitrile)",ClC(c1ccc(cc1)C(Cl)C(Cl)c1ccc(C#N)cc1[N+](=O)[O-])C(Cl)c1ccc(C#N)cc1[N+](=O)[O-],Karthikeyan M.; Glen R.C.; Bender A. General melting point prediction based on a diverse compound dataset and artificial neural networks. J. Chem. Inf. Model.; 2005; 45(3); 581-3235
11344,2031951.0,,,11345.0,http://dx.doi.org/10.1021/ci0500132,162.0,"ethyl [(E)-(4,7,7-trimethyl-3-oxobicyclo[2.2.1]hept-2-ylidene)methyl]carbamate",O=C1C(=CNC(=O)OCC)C2CCC1(C)C2(C)C,Karthikeyan M.; Glen R.C.; Bender A. General melting point prediction based on a diverse compound dataset and artificial neural networks. J. Chem. Inf. Model.; 2005; 45(3); 581-2927
8752,46712.0,,,8753.0,http://dx.doi.org/10.1021/ci020280x,176.0,acifran,CC1(OC(=CC1=O)C(O)=O)c2ccccc2,Bergstrom C. A. S.; Norinder U.; Luthman K.; Artursson P. Molecular Descriptors Influencing Melting Point and Their Role in Classification of Solid Drugs. J. Chem. Inf. Comput. Sci.; (Article); 2003; 43(4); 1177-1199
11721,2030599.0,,,11722.0,http://dx.doi.org/10.1021/ci0500132,223.0,2-naphthalen-1-yl-6-nitro-3H-indol-3-one 1-oxide,O=[N+]([O-])c1ccc2c([N+]([O-])=C(c3cccc4ccccc43)C2=O)c1,Karthikeyan M.; Glen R.C.; Bender A. General melting point prediction based on a diverse compound dataset and artificial neural networks. J. Chem. Inf. Model.; 2005; 45(3); 581-3304
22902,56292.0,,,22903.0,http://www.srcinc.com/what-we-do/product.aspx?id=133,144.0,metazocine,Oc2ccc3CC1C(C)C(C)(CCN1C)c3c2,PHYSPROP
15061,21106146.0,,,15062.0,http://msds.chem.ox.ac.uk/,15.5,1-Methyl-3-nitrobenzene,Cc1cc(ccc1)[N+](=O)[O-],academic website
6947,7823.0,,,6948.0,http://www.alfa.com/en/GP100W.pgm?DSSTK=B21423,-122.0,di-n-propyl ether,CCCOCCC,Alfa Aesar
28619,5376.0,,,28620.0,http://chemspider.com/5376,201.0,trimethoprim,COc1cc(cc(c1OC)OC)Cc2cnc(nc2N)N,EPISuite-ChemSpider
17980,18309.0,,,17981.0,http://www.srcinc.com/what-we-do/product.aspx?id=133,118.0,5-methylchrysene,Cc2cc4ccccc4c1ccc3ccccc3c12,PHYSPROP
7119,99912.0,,,7120.0,http://www.alfa.com/en/GP100W.pgm?DSSTK=L05413,130.0,ethyl 4-hydroxymandelate,CCOC(=O)C(c1ccc(cc1)O)O,Alfa Aesar
21555,5027.0,,,21556.0,http://www.srcinc.com/what-we-do/product.aspx?id=133,226.0,simazine,Clc1nc(NCC)nc(NCC)n1,PHYSPROP
14544,19606.0,,,14545.0,http://www.amazon.com/dp/B003XEQTLE,34.0,2-tetradecanol,CC(O)CCCCCCCCCCCC,Aldrich Chemical Company; Aldrich Catalog-Handbook of Fine Chemicals; Milwaukee; WI; 1984.
5426,2080170.0,,,5427.0,http://www.alfa.com/en/GP100W.pgm?DSSTK=A19516,128.0,4-n-butylbenzamide,CCCCc1ccc(cc1)C(=O)N,Alfa Aesar
10533,2035453.0,,,10534.0,http://dx.doi.org/10.1021/ci0500132,184.0,"3-[(3-Nitrophenyl)hydrazono]pentane-2,4-dione",O=[N+]([O-])c1cccc(NN=C(C(=O)C)C(=O)C)c1,Karthikeyan M.; Glen R.C.; Bender A. General melting point prediction based on a diverse compound dataset and artificial neural networks. J. Chem. Inf. Model.; 2005; 45(3); 581-2116
13262,13835209.0,,,13263.0,http://www.amazon.com/dp/B003XEQTLE,16.0,"1,4-butanediol",OCCCCO,Aldrich Chemical Company; Aldrich Catalog-Handbook of Fine Chemicals; Milwaukee; WI; 1984.
28149,730.0,,,28150.0,http://chemspider.com/730,262.0,glycine,C(C(=O)O)N,EPISuite-ChemSpider
18500,14571.0,,,18501.0,http://www.srcinc.com/what-we-do/product.aspx?id=133,-37.0,5-hexenoic acid,C=CCCCC(=O)O,PHYSPROP
25639,4475249.0,,,25640.0,http://www.srcinc.com/what-we-do/product.aspx?id=133,211.5,"cinnamic acid, p-hydroxy",Oc1cc(C=C/C(=O)O)ccc1,PHYSPROP
19792,9902.0,,,19793.0,http://www.srcinc.com/what-we-do/product.aspx?id=133,-53.0,bicyclo[4.3.0]nonane,C1CCC2CCCCC12,PHYSPROP
2068,8118.0,,,2069.0,http://www.alfa.com/en/GP100W.pgm?DSSTK=B20112,48.0,2-benzyl-4-chlorophenol,c1ccc(cc1)Cc2cc(ccc2O)Cl,Alfa Aesar
10529,2035461.0,,,10530.0,http://dx.doi.org/10.1021/ci0500132,79.0,"(3,4-dimethoxyphenyl)(4-methoxyphenyl)methanone",O=C(c1ccc(OC)cc1)c1ccc(OC)c(OC)c1,Karthikeyan M.; Glen R.C.; Bender A. General melting point prediction based on a diverse compound dataset and artificial neural networks. J. Chem. Inf. Model.; 2005; 45(3); 581-2112
14935,12726.0,,,14936.0,http://msds.chem.ox.ac.uk/,138.0,"1,3,5-Tris(2-hydroxyethyl)-1,3,5-triazinane-2,4,6-trione",OCCN1C(=O)N(CCO)C(=O)N(CCO)C1=O,academic website
26805,21106481.0,,,26806.0,http://www.srcinc.com/what-we-do/product.aspx?id=133,54.5,succinonitrile,N#CCCC#N,PHYSPROP
8207,284794.0,,,8208.0,http://www.alfa.com/en/GP100W.pgm?DSSTK=A18764,126.0,oxindole,c1ccc2c(c1)CC(=O)N2,Alfa Aesar
3615,121583.0,,,3616.0,http://www.alfa.com/en/GP100W.pgm?DSSTK=L19730,104.0,3-amino-4-methylpyridine,Cc1ccncc1N,Alfa Aesar
27625,21106095.0,,,27626.0,http://www.aapspharmscitech.org/view.asp?art=pt070126,41.0,"3,4-dichloronitrobenzene",Clc1ccc(cc1Cl)[N+]([O-])=O,Sepassi K; Yalkowsky SH; AAPS PharmSciTech; 7(1); E1-E8 (2006)
2887,88046.0,,,2888.0,http://www.alfa.com/en/GP100W.pgm?DSSTK=B22360,129.0,2-methyl-5-nitro-2h-indazole,Cn1cc2cc(ccc2n1)[N+](=O)[O-],Alfa Aesar
327,2036748.0,,,328.0,http://www.alfa.com/en/GP100W.pgm?DSSTK=H28817,102.0,1-boc-azetidine-3-carboxylic acid,CC(C)(C)OC(=O)N1CC(C1)C(=O)O,Alfa Aesar
20099,8617.0,,,20100.0,http://www.srcinc.com/what-we-do/product.aspx?id=133,92.0,chlorindanol,Oc1ccc(Cl)c2CCCc12,PHYSPROP
18008,17939.0,,,18009.0,http://www.srcinc.com/what-we-do/product.aspx?id=133,42.5,"1,4-dithiothreitol",SCC(O)C(O)CS,PHYSPROP
10151,3120875.0,,,10152.0,http://dx.doi.org/10.1021/ci0500132,181.0,"cyclohepta-4,6-diene-1,3-diyl bis(phenylcarbamate)",O=C(OC1C=CC=CC(OC(=O)Nc2ccccc2)C1)Nc1ccccc1,Karthikeyan M.; Glen R.C.; Bender A. General melting point prediction based on a diverse compound dataset and artificial neural networks. J. Chem. Inf. Model.; 2005; 45(3); 581-1734
4821,69460.0,,,4822.0,http://www.alfa.com/en/GP100W.pgm?DSSTK=A11427,102.0,4-bromophenyl methyl sulfone,CS(=O)(=O)c1ccc(cc1)Br,Alfa Aesar
14917,9325.0,,,14918.0,http://msds.chem.ox.ac.uk/,-34.0,"1,2-Difluorobenzene",Fc1ccccc1F,academic website
23595,63658.0,,,23596.0,http://www.srcinc.com/what-we-do/product.aspx?id=133,141.5,"2(1h)-pyridinone, 3-methyl-",CC1=CC=CNC1=O,PHYSPROP
5548,645462.0,,,5549.0,http://www.alfa.com/en/GP100W.pgm?DSSTK=H51754,93.0,4-phenyl-2-(4-pyridyl)thiazole,c1ccc(cc1)c2csc(n2)c3ccncc3,Alfa Aesar
13216,121640.0,,,13217.0,http://www.amazon.com/dp/B002IYRJWI,-113.0,isopropylcyclopropane,CC(C)C1CC1,American Petroleum Institute. Research Project 44; Selected Values of Properties of Hydrocarbons and Related Compounds. Texas A & M University; College Station; TX; 1973.
5974,628889.0,,,5975.0,http://www.alfa.com/en/GP100W.pgm?DSSTK=L11983,285.0,5-methyl-2-thiouracil,Cc1c[nH]c(=S)[nH]c1=O,Alfa Aesar
28477,6907.0,,,28478.0,http://www.aapspharmscitech.org/view.asp?art=pt070126,96.0,propyl p-hydroxybenzoate,O=C(OCCC)c1ccc(O)cc1,Sepassi K; Yalkowsky SH; AAPS PharmSciTech; 7(1); E1-E8 (2006)
13181,659.0,,,13182.0,http://www.amazon.com/dp/B003XEQTLE,18.0,dimethyl_sulfoxide,CS(C)=O,Aldrich Chemical Company; Aldrich Catalog-Handbook of Fine Chemicals; Milwaukee; WI; 1984.
1206,21112533.0,,,1207.0,http://www.alfa.com/en/GP100W.pgm?DSSTK=A13898,31.0,"2,3,5,6-tetrafluoroaniline",c1c(c(c(c(c1F)F)N)F)F,Alfa Aesar
2031,10676.0,,,2032.0,http://www.alfa.com/en/GP100W.pgm?DSSTK=H27343,135.0,2'-aminoacetanilide,CC(=O)Nc1ccccc1N,Alfa Aesar
1568,2058515.0,,,1569.0,http://www.alfa.com/en/GP100W.pgm?DSSTK=L19878,61.0,"2,5-bis(trifluoromethyl)benzenesulfonyl chloride",c1cc(c(cc1C(F)(F)F)S(=O)(=O)Cl)C(F)(F)F,Alfa Aesar
7013,11357.0,,,7014.0,http://www.alfa.com/en/GP100W.pgm?DSSTK=A18402,189.0,dulcitol,C([C@H]([C@@H]([C@@H]([C@H](CO)O)O)O)O)O,Alfa Aesar
12303,652690.0,,,12304.0,http://dx.doi.org/10.1021/ci0500132,123.0,"benzamide, N-(4-phenyl-2-thiazolyl)-",s1cc([nH0]c1NC(=O)c1ccccc1)c1ccccc1,Karthikeyan M.; Glen R.C.; Bender A. General melting point prediction based on a diverse compound dataset and artificial neural networks. J. Chem. Inf. Model.; 2005; 45(3); 581-3886
2793,579127.0,,,2794.0,http://www.alfa.com/en/GP100W.pgm?DSSTK=B20570,257.0,2-mercapto-5-methoxybenzimidazole,COc1ccc2c(c1)nc([nH]2)S,Alfa Aesar
17618,24584.0,,,17619.0,http://www.srcinc.com/what-we-do/product.aspx?id=133,170.5,metopimazine,NC(=O)C1CCN(CC1)CCCN2c4ccccc4Sc3ccc(cc23)S(C)(=O)=O,PHYSPROP
20661,7289.0,,,20662.0,http://www.srcinc.com/what-we-do/product.aspx?id=133,38.0,diphenyl methane diisocyanate,O=C=Nc1ccc(cc1)Cc2ccc(N=C=O)cc2,PHYSPROP
22525,14.0,,,22526.0,http://www.srcinc.com/what-we-do/product.aspx?id=133,181.0,"androstan-3-one, 17-hydroxy-, (5alpha,17beta)-",O=C3CC4CCC2C(CCC1(C)C2CCC1O)C4(C)CC3,PHYSPROP
10949,2033867.0,,,10950.0,http://dx.doi.org/10.1021/ci0500132,221.0,"7,8,9,10-tetramethyl-6H-pyrido[1,2-b]isoquinolin-6-one",O=C1N2C=CC=CC2=Cc2c(C)c(C)c(C)c(C)c12,Karthikeyan M.; Glen R.C.; Bender A. General melting point prediction based on a diverse compound dataset and artificial neural networks. J. Chem. Inf. Model.; 2005; 45(3); 581-2532
13553,61553.0,,,13554.0,http://www.amazon.com/dp/B003XEQTLE,38.0,2-aminobenzaldehyde,O=Cc1ccccc1N,Aldrich Chemical Company; Aldrich Catalog-Handbook of Fine Chemicals; Milwaukee; WI; 1984.
25314,558882.0,,,25315.0,http://www.srcinc.com/what-we-do/product.aspx?id=133,-124.2,"2-pentene, 3,4-dimethyl-, (e)-",CC=C(C)C(C)C,PHYSPROP
15047,31029.0,,,15048.0,http://msds.chem.ox.ac.uk/,-101.0,1-Iodopropane,CCCI,academic website
19918,9392.0,,,19919.0,http://www.srcinc.com/what-we-do/product.aspx?id=133,-56.6,"1,1-dichloro-1,2,2,2-tetrafluoroethane",FC(F)(F)C(Cl)(Cl)F,PHYSPROP
17030,2660.0,,,17031.0,http://www.drugbank.ca/drugs/DB00827,261.0,Cinoxacin,O=C(O)C2=NN(CC)c1cc3OCOc3cc1C2=O,DrugBank
1978,521210.0,,,1979.0,http://www.alfa.com/en/GP100W.pgm?DSSTK=H27465,115.0,2-amino-5-bromopyrazine,c1c(ncc(n1)Br)N,Alfa Aesar
22208,1940.0,,,22209.0,http://www.srcinc.com/what-we-do/product.aspx?id=133,226.0,"3,9-acridinediamine, 7-ethoxy-, monohydrate",CCOc1ccc2nc3cc(N)ccc3c(N)c2c1,PHYSPROP
7676,197537.0,,,7677.0,http://www.alfa.com/en/GP100W.pgm?DSSTK=B23263,8.0,methyl isonicotinate,COC(=O)c1ccncc1,Alfa Aesar
9803,4644753.0,,,9804.0,http://dx.doi.org/10.1021/ci0500132,180.0,"diethyl (4'E)-4,4'-(E)-methylylidenebis(5-oxo-1-phenyl-4,5-dihydro-1H-pyrazole-3-carboxylate)",O=C1N(N=C(C1=CC1C(=O)N(N=C1C(=O)OCC)c1ccccc1)C(=O)OCC)c1ccccc1,Karthikeyan M.; Glen R.C.; Bender A. General melting point prediction based on a diverse compound dataset and artificial neural networks. J. Chem. Inf. Model.; 2005; 45(3); 581-1386
1335,553829.0,,,1336.0,http://www.alfa.com/en/GP100W.pgm?DSSTK=H26920,186.0,"2',4,4'-trihydroxychalcone",c1cc(ccc1/C=C/C(=O)c2ccc(cc2O)O)O,Alfa Aesar
6753,2863.0,,,6754.0,http://www.alfa.com/en/GP100W.pgm?DSSTK=A14788,31.0,decanoic acid,CCCCCCCCCC(=O)O,Alfa Aesar
5207,56139.0,,,5208.0,http://www.alfa.com/en/GP100W.pgm?DSSTK=A15160,114.0,4-hydroxy-3-methoxybenzyl alcohol,COc1cc(ccc1O)CO,Alfa Aesar
7418,2006549.0,,,7419.0,http://www.alfa.com/en/GP100W.pgm?DSSTK=B24211,32.0,L-methioninol,CSCC[C@@H](CO)N,Alfa Aesar
13141,221078.0,,,13142.0,http://www.amazon.com/dp/B002IYRJWI,-141.0,"cis-1,2-dimethylcyclopropane",C[C@H]1C[C@H]1C,American Petroleum Institute. Research Project 44; Selected Values of Properties of Hydrocarbons and Related Compounds. Texas A & M University; College Station; TX; 1973.
7583,2009722.0,,,7584.0,http://www.alfa.com/en/GP100W.pgm?DSSTK=H32113,79.0,"methyl 4,5-dibromothiophene-2-carboxylate",COC(=O)c1cc(c(s1)Br)Br,Alfa Aesar
26177,10442762.0,,,26178.0,http://www.srcinc.com/what-we-do/product.aspx?id=133,228.5,"1-(4-bromo),2-dibenzoyl-1-tert-butylhydrazine",O=C(c1ccc(Br)cc1)N(NC(=O)c2ccccc2)C(C)(C)C,PHYSPROP
25901,8523767.0,,,25902.0,http://www.srcinc.com/what-we-do/product.aspx?id=133,106.5,o-t-butyl carbamate,CC(C)(C)NC(=O)O,PHYSPROP
18590,13869.0,,,18591.0,http://www.srcinc.com/what-we-do/product.aspx?id=133,5.0,fenchone,CC2(C)C(=O)C1(C)CCC2C1,PHYSPROP
14088,8140.0,,,14089.0,http://www.amazon.com/dp/B003XEQTLE,43.0,"2,4-dichlorophenol",Clc1cc(Cl)c(O)cc1,Aldrich Chemical Company; Aldrich Catalog-Handbook of Fine Chemicals; Milwaukee; WI; 1984.
12365,557051.0,,,12366.0,http://dx.doi.org/10.1021/ci0500132,76.0,"Chalcone, 4-methoxy-",O=C(C=Cc1ccc(OC)cc1)c1ccccc1,Karthikeyan M.; Glen R.C.; Bender A. General melting point prediction based on a diverse compound dataset and artificial neural networks. J. Chem. Inf. Model.; 2005; 45(3); 581-3948
4194,69310.0,,,4195.0,http://www.alfa.com/en/GP100W.pgm?DSSTK=L13535,152.0,3-phthalimidopropionic acid,c1ccc2c(c1)C(=O)N(C2=O)CCC(=O)O,Alfa Aesar
12249,851527.0,,,12250.0,http://dx.doi.org/10.1021/ci0500132,135.0,"Diethyl-4-(1,3-benzodioxol-5-yl)-2,6-dimethyl-1,4-dihydropyridin-3,5-dicarboxylat",O=C(OCC)C1=C(NC(C)=C(C(=O)OCC)C1c1ccc2OCOc2c1)C,Karthikeyan M.; Glen R.C.; Bender A. General melting point prediction based on a diverse compound dataset and artificial neural networks. J. Chem. Inf. Model.; 2005; 45(3); 581-3832
6036,600486.0,,,6037.0,http://www.alfa.com/en/GP100W.pgm?DSSTK=H50588,169.0,"6-(4-bromophenyl)-4,5-dihydro-3(2h)-pyridazinone",c1cc(ccc1C2=NNC(=O)CC2)Br,Alfa Aesar
11638,2030821.0,,,11639.0,http://dx.doi.org/10.1021/ci0500132,162.0,"2-(1,2-dihydroacenaphthylen-5-yl)-3-phenylquinoxaline",[nH0]1c2ccccc2[nH0]c(c1c1ccccc1)c1ccc2CCc3cccc1c32,Karthikeyan M.; Glen R.C.; Bender A. General melting point prediction based on a diverse compound dataset and artificial neural networks. J. Chem. Inf. Model.; 2005; 45(3); 581-3221
19372,11170.0,,,19373.0,http://www.srcinc.com/what-we-do/product.aspx?id=133,-33.8,"propane, 2,2-dichloro-",CC(C)(Cl)Cl,PHYSPROP
13007,4676.0,,,13008.0,http://dx.doi.org/10.1021/ci0500132,106.0,"1,4-Bis(3-bromopropanoyl)piperazine",BrCCC(=O)N1CCN(CC1)C(=O)CCBr,Karthikeyan M.; Glen R.C.; Bender A. General melting point prediction based on a diverse compound dataset and artificial neural networks. J. Chem. Inf. Model.; 2005; 45(3); 581-4590
14967,21105878.0,,,14968.0,http://msds.chem.ox.ac.uk/,58.0,"1,4-Dimethoxybenzene",COc1ccc(OC)cc1,academic website
24020,70361.0,,,24021.0,http://www.srcinc.com/what-we-do/product.aspx?id=133,42.5,4-chloro-2-methyl-quinoline,Clc1cc(C)nc2ccccc12,PHYSPROP
14404,21106035.0,,,14405.0,http://www.amazon.com/dp/B003XEQTLE,31.0,"2,4-dichloronitrobenzene",O=[N+]([O-])c1ccc(Cl)cc1Cl,Aldrich Chemical Company; Aldrich Catalog-Handbook of Fine Chemicals; Milwaukee; WI; 1984.
26067,10439811.0,,,26068.0,http://www.srcinc.com/what-we-do/product.aspx?id=133,104.0,"benzenesulfonamide, 3-fluoro-4-[(4-hydroxybutyl)",NS(=O)(=O)c1ccc(SCCCCO)c(F)c1,PHYSPROP
7707,9509.0,,,7708.0,http://www.alfa.com/en/GP100W.pgm?DSSTK=A17338,-78.0,methyl trifluoroacetate,COC(=O)C(F)(F)F,Alfa Aesar
15753,13100.0,,,15754.0,http://msds.chem.ox.ac.uk/,201.5,Diphenylsilanediol,O[Si](O)(c1ccccc1)c2ccccc2,academic website