,csid,donotuse,donotusebecause,key,link,mpC,name,smiles,source
17388,30996.0,,,17389.0,http://www.srcinc.com/what-we-do/product.aspx?id=133,-50.0,diisodecyl phthalate,CC(C)CCCCCCCOC(=O)c1ccccc1C(=O)OCCCCCCCC(C)C,PHYSPROP
11204,2032664.0,,,11205.0,http://dx.doi.org/10.1021/ci0500132,148.0,"N'-[(2E)-4,6-diphenyl-2H-thiopyran-2-ylidene]-N,N-dimethylbenzene-1,4-diamine",S1C(=Nc2ccc(N(C)C)cc2)C=C(C=C1c1ccccc1)c1ccccc1,Karthikeyan M.; Glen R.C.; Bender A. General melting point prediction based on a diverse compound dataset and artificial neural networks. J. Chem. Inf. Model.; 2005; 45(3); 581-2787
5259,87265.0,,,5260.0,http://www.alfa.com/en/GP100W.pgm?DSSTK=L17448,77.0,4-iodobenzaldehyde,c1cc(ccc1C=O)I,Alfa Aesar
10936,2033880.0,,,10937.0,http://dx.doi.org/10.1021/ci0500132,133.0,"2,5-dimethylbicyclo[4.2.0]octa-1,3,5-triene-7,8-dione",O=C1c2c(c(C)ccc2C)C1=O,Karthikeyan M.; Glen R.C.; Bender A. General melting point prediction based on a diverse compound dataset and artificial neural networks. J. Chem. Inf. Model.; 2005; 45(3); 581-2519
7308,1675.0,,,7309.0,http://www.alfa.com/en/GP100W.pgm?DSSTK=A12441,143.0,homovanillic acid,COc1cc(ccc1O)CC(=O)O,Alfa Aesar
25439,2272774.0,,,25440.0,http://www.srcinc.com/what-we-do/product.aspx?id=133,146.0,tiocarlide,CC(C)CCOc1ccc(cc1)NC(=S)Nc2ccc(OCCC(C)C)cc2,PHYSPROP
26581,13863645.0,,,26582.0,http://www.srcinc.com/what-we-do/product.aspx?id=133,-57.5,trichloroacetaldehyde,ClC(Cl)(Cl)C=O,PHYSPROP
484,63830.0,,,485.0,http://www.alfa.com/en/GP100W.pgm?DSSTK=A18708,104.0,"1,4-dicyclohexylbenzene",c1cc(ccc1C2CCCCC2)C3CCCCC3,Alfa Aesar
21107,6448.0,,,21108.0,http://www.srcinc.com/what-we-do/product.aspx?id=133,231.5,1-nitroanthraquinone,[O-][N+](=O)c3cccc2C(=O)c1ccccc1C(=O)c23,PHYSPROP
11537,2031153.0,,,11538.0,http://dx.doi.org/10.1021/ci0500132,335.0,"N-(2-oxo-2,3-dihydro-1H-indol-6-yl)acetamide",O=C1Nc2cc(NC(=O)C)ccc2C1,Karthikeyan M.; Glen R.C.; Bender A. General melting point prediction based on a diverse compound dataset and artificial neural networks. J. Chem. Inf. Model.; 2005; 45(3); 581-3120
8958,5919.0,,,8959.0,http://dx.doi.org/10.1021/ci020280x,77.0,mebutamate,CCC(C)C(C)(COC(N)=O)COC(N)=O,Bergstrom C. A. S.; Norinder U.; Luthman K.; Artursson P. Molecular Descriptors Influencing Melting Point and Their Role in Classification of Solid Drugs. J. Chem. Inf. Comput. Sci.; (Article); 2003; 43(4); 1177-1405
16909,1859.0,,,16910.0,http://www.drugbank.ca/drugs/DB00382,183.5,Tacrine,Nc1c3ccccc3nc2CCCCc12,DrugBank
21457,5381.0,,,21458.0,http://www.srcinc.com/what-we-do/product.aspx?id=133,216.0,24nh2-5me-6(345meophnme)quinazoline,COc1cc(cc(OC)c1OC)NCc2ccc3nc(N)nc(N)c3c2C,PHYSPROP
529,2059317.0,,,530.0,http://www.alfa.com/en/GP100W.pgm?DSSTK=H26571,174.0,"1,4-benzodioxane-2-thiocarboxamide",c1ccc2c(c1)OCC(O2)C(=S)N,Alfa Aesar
25370,1013221.0,,,25371.0,http://www.srcinc.com/what-we-do/product.aspx?id=133,89.3,"2(3h)-thiazolethione, 4-methyl-",Cc1csc(S)n1,PHYSPROP
15367,11080.0,,,15368.0,http://msds.chem.ox.ac.uk/,125.0,3-Aminophenol,Nc1cccc(O)c1,academic website
22597,35159.0,,,22598.0,http://www.srcinc.com/what-we-do/product.aspx?id=133,44.0,4-hexyloxyaniline,Nc1ccc(OCCCCCC)cc1,PHYSPROP
8062,13492.0,,,8063.0,http://www.alfa.com/en/GP100W.pgm?DSSTK=A12969,-48.0,N-heptylbenzene,CCCCCCCc1ccccc1,Alfa Aesar
12880,21983.0,,,12881.0,http://dx.doi.org/10.1021/ci0500132,116.0,"6-(a,a,a-Trifluoro-p-tolyl)-3-morpholinone",FC(F)(F)c1ccc(cc1)C1OCC(=O)NC1,Karthikeyan M.; Glen R.C.; Bender A. General melting point prediction based on a diverse compound dataset and artificial neural networks. J. Chem. Inf. Model.; 2005; 45(3); 581-4463
10141,3156911.0,,,10142.0,http://dx.doi.org/10.1021/ci0500132,223.0,"5-hydroxycholestane-3,6-dione",O=C1CCC2(C)C3CCC4(C)C(CCC4C(C)CCCC(C)C)C3CC(=O)C2(O)C1,Karthikeyan M.; Glen R.C.; Bender A. General melting point prediction based on a diverse compound dataset and artificial neural networks. J. Chem. Inf. Model.; 2005; 45(3); 581-1724
19526,10776.0,,,19527.0,http://www.srcinc.com/what-we-do/product.aspx?id=133,-74.6,"2,3-dimethyl-2-butene",C/C(C)=C(/C)C,PHYSPROP
24401,82840.0,,,24402.0,http://www.srcinc.com/what-we-do/product.aspx?id=133,100.3,"carbamic acid, (3,4-diethoxyphenyl)-, 1-methylet",CCOc1cc(ccc1OCC)NC(=O)OC(C)C,PHYSPROP
11630,2030847.0,x,mixture,11631.0,http://dx.doi.org/10.1021/ci0500132,175.0,"2,4,6-trinitrophenol - 2-[(2-nitrophenyl)ethynyl]pyridine (1:1)",O=[N+]([O-])c1cc([N+](=O)[O-])c(O)c([N+](=O)[O-])c1.O=[N+]([O-])c1ccccc1C#Cc1[nH0]cccc1,Karthikeyan M.; Glen R.C.; Bender A. General melting point prediction based on a diverse compound dataset and artificial neural networks. J. Chem. Inf. Model.; 2005; 45(3); 581-3213
7639,201753.0,,,7640.0,http://www.alfa.com/en/GP100W.pgm?DSSTK=L12276,34.0,methyl 6-methylnicotinate,Cc1ccc(cn1)C(=O)OC,Alfa Aesar
2817,7060.0,,,2818.0,http://www.alfa.com/en/GP100W.pgm?DSSTK=B24220,140.0,2-methoxy-4-nitroaniline,COc1cc(ccc1N)[N+](=O)[O-],Alfa Aesar
27325,553827.0,,,27326.0,http://tinyurl.com/7pwl3se,87.5,(2E)-1-(2-Hydroxyphenyl)-3-phenyl-2-propen-1-one,OC1=C(C=CC=C1)C(\C=C\C2=CC=CC=C2)=O,Tetrahedron
20669,7270.0,,,20670.0,http://www.srcinc.com/what-we-do/product.aspx?id=133,75.0,barban,Clc1cc(NC(=O)OCC#CCCl)ccc1,PHYSPROP
10924,2033892.0,x,mixture - AL,10925.0,http://dx.doi.org/10.1021/ci0500132,101.0,"methyl 3-ethyl-2-methyl-1H-indole-1-carboxylate - 2,4,6-trinitrophenol (1:1)",O=[N+]([O-])c1cc([N+](=O)[O-])c(O)c([N+](=O)[O-])c1.O=C(OC)[nH0]1c2ccccc2c(CC)c1C,Karthikeyan M.; Glen R.C.; Bender A. General melting point prediction based on a diverse compound dataset and artificial neural networks. J. Chem. Inf. Model.; 2005; 45(3); 581-2507
12102,2029255.0,,,12103.0,http://dx.doi.org/10.1021/ci0500132,203.0,"6-(4-chlorophenyl)-3-(2-methoxyphenyl)-5,6-dihydro[1,2,4]triazolo[3,4-b][1,3,4]thiadiazole",Clc1ccc(cc1)C1Sc2[nH0][nH0]c([nH0]2N1)c1ccccc1OC,Karthikeyan M.; Glen R.C.; Bender A. General melting point prediction based on a diverse compound dataset and artificial neural networks. J. Chem. Inf. Model.; 2005; 45(3); 581-3685
13272,68268.0,,,13273.0,http://www.amazon.com/dp/B002IYRJWI,-131.0,3-heptyne,CCCC#CCC,American Petroleum Institute. Research Project 44; Selected Values of Properties of Hydrocarbons and Related Compounds. Texas A & M University; College Station; TX; 1973.
12367,556603.0,,,12368.0,http://dx.doi.org/10.1021/ci0500132,138.0,Ethyl 3-(4-chlorophenyl)-2-cyanoacrylate,Clc1ccc(cc1)C=C(C#N)C(=O)OCC,Karthikeyan M.; Glen R.C.; Bender A. General melting point prediction based on a diverse compound dataset and artificial neural networks. J. Chem. Inf. Model.; 2005; 45(3); 581-3950
15477,10181338.0,,,15478.0,http://msds.chem.ox.ac.uk/,183.5,4-Methoxybenzoic acid,COc1ccc(cc1)C(=O)O,academic website
21310,6100.0,,,21311.0,http://www.srcinc.com/what-we-do/product.aspx?id=133,-111.1,iodoethane,CCI,PHYSPROP
14540,21171408.0,,,14541.0,http://www.questia.com/library/book/physical_properties_of_chemical_compounds_by_robert_rickert_dreisbach.jsp,-65.0,"1,2-dibromobutane",BrC(CC)CBr,Dreisbach R. R. Physical Properties of Chemical Compounds; Vol. III; American Chemical Society; Washington; 1961.
11198,2032677.0,x,salt - AL,11199.0,http://dx.doi.org/10.1021/ci0500132,268.0,"4-(diphenylphosphoryl)-2,6-diphenylpyranium perchlorate",[Cl+3]([O-])([O-])([O-])[O-].[P+]([O-])(c1ccccc1)(c1ccccc1)c1cc([o+]c(c1)c1ccccc1)c1ccccc1,Karthikeyan M.; Glen R.C.; Bender A. General melting point prediction based on a diverse compound dataset and artificial neural networks. J. Chem. Inf. Model.; 2005; 45(3); 581-2781
28014,2908.0,,,28015.0,http://chemspider.com/2908,132.0,diazepam,CN1c2ccc(cc2C(=NCC1=O)c3ccccc3)Cl,EPISuite-ChemSpider
25286,553827.0,,,25287.0,http://www.srcinc.com/what-we-do/product.aspx?id=133,90.0,2'-hydroxychalcone,O=C(/C=C/c1ccccc1)c2ccccc2O,PHYSPROP
2525,13005.0,,,2526.0,http://www.alfa.com/en/GP100W.pgm?DSSTK=A15435,-53.0,2-cyclohexen-1-one,C1CC=CC(=O)C1,Alfa Aesar
16821,43284.0,,,16822.0,http://www.drugbank.ca/drugs/DB01026,146.0,Ketoconazole,CC(=O)N1CCN(CC1)c2ccc(cc2)OC[C@@H]4CO[C@](Cn3cncc3)(O4)c5ccc(Cl)cc5Cl,DrugBank
20263,8099.0,,,20264.0,http://www.srcinc.com/what-we-do/product.aspx?id=133,98.0,"benzoic acid, 2-formyl-",OC(=O)c1ccccc1C=O,PHYSPROP
2323,2017408.0,,,2324.0,http://www.alfa.com/en/GP100W.pgm?DSSTK=H50379,103.0,2-chloro-4-cyanobenzenesulfonyl chloride,c1cc(c(cc1C#N)Cl)S(=O)(=O)Cl,Alfa Aesar
7863,653.0,,,7864.0,http://www.alfa.com/en/GP100W.pgm?DSSTK=A19670,181.0,"N,N-dimethylglycine",CN(C)CC(=O)O,Alfa Aesar
13670,7434.0,,,13671.0,http://www.amazon.com/dp/088318205X,-70.0,2-ethyl-1-hexanol,CCC(CCCC)CO,Wilhoit R. C. Physical and Thermodynamic Properties of Aliphatic Alcohols. (Supplement to Journal of Physical and Chemical Reference Data; Vol 2; No. 1.); American Chemical Society; Washington; 1973.
5327,10256859.0,,,5328.0,http://www.alfa.com/en/GP100W.pgm?DSSTK=B22614,166.0,4-methoxybenzamide,COc1ccc(cc1)C(=O)N,Alfa Aesar
5191,278289.0,,,5192.0,http://www.alfa.com/en/GP100W.pgm?DSSTK=B25447,210.0,4-hydroxy-2-(trifluoromethyl)quinoline,c1ccc2c(c1)c(cc(n2)C(F)(F)F)O,Alfa Aesar
10425,2036181.0,,,10426.0,http://dx.doi.org/10.1021/ci0500132,149.0,ethyl 5-amino-1-carbamothioyl-3-(methylsulfanyl)-1H-pyrazole-4-carboxylate,S=C(N)[nH0]1[nH0]c(SC)c(c1N)C(=O)OCC,Karthikeyan M.; Glen R.C.; Bender A. General melting point prediction based on a diverse compound dataset and artificial neural networks. J. Chem. Inf. Model.; 2005; 45(3); 581-2008
378,621447.0,,,379.0,http://www.alfa.com/en/GP100W.pgm?DSSTK=B22083,183.0,1-acetyl-4-(4-hydroxyphenyl)piperazine,CC(=O)N1CCN(CC1)c2ccc(cc2)O,Alfa Aesar
13855,12823.0,,,13856.0,http://www.amazon.com/dp/B003XEQTLE,71.0,4-chlorobenzyl alcohol,OCc1ccc(Cl)cc1,Aldrich Chemical Company; Aldrich Catalog-Handbook of Fine Chemicals; Milwaukee; WI; 1984.
25283,553742.0,,,25284.0,http://www.srcinc.com/what-we-do/product.aspx?id=133,-49.8,"1,2-dichloroethene (trans)",Cl[C@H]=CCl,PHYSPROP
11505,2031374.0,,,11506.0,http://dx.doi.org/10.1021/ci0500132,40.0,methyl 4-(1H-triaziren-1-yl)benzoate,O=C(OC)c1ccc(N2N=N2)cc1,Karthikeyan M.; Glen R.C.; Bender A. General melting point prediction based on a diverse compound dataset and artificial neural networks. J. Chem. Inf. Model.; 2005; 45(3); 581-3088
17570,26031.0,,,17571.0,http://www.srcinc.com/what-we-do/product.aspx?id=133,74.5,ethephon,ClCCP(=O)(O)O,PHYSPROP
21622,4715.0,,,21623.0,http://www.srcinc.com/what-we-do/product.aspx?id=133,135.0,practolol,CC(C)NCC(O)COc1ccc(cc1)NC(C)=O,PHYSPROP
25186,502886.0,,,25187.0,http://www.srcinc.com/what-we-do/product.aspx?id=133,53.5,"methanethione, diphenyl-",S=C(c1ccccc1)c2ccccc2,PHYSPROP
17370,31608.0,,,17371.0,http://www.srcinc.com/what-we-do/product.aspx?id=133,215.5,oxcarbazepine,NC(=O)N3c1ccccc1C(=O)Cc2ccccc23,PHYSPROP
11193,2032687.0,x,salt - AL,11194.0,http://dx.doi.org/10.1021/ci0500132,243.0,"2,6-bis(4-methoxyphenyl)-4-(phenylcarbamoyl)pyranium perchlorate",[Cl+3]([O-])([O-])([O-])[O-].O=C(Nc1ccccc1)c1cc([o+]c(c1)c1ccc(OC)cc1)c1ccc(OC)cc1,Karthikeyan M.; Glen R.C.; Bender A. General melting point prediction based on a diverse compound dataset and artificial neural networks. J. Chem. Inf. Model.; 2005; 45(3); 581-2776
28425,970.0,,,28426.0,http://dx.doi.org/10.1080/10629360701430124,101.0,phenanthrene,c1ccc2c(c1)ccc3c2cccc3,RAEVSKY OA; PERLOVICH GL and SCHAPER K-J. Physicochemical properties/descriptors governing the solubility and partitioning of chemicals in water-solvent-gas systems. Part 2. Solubility in 1-octanol. SAR and QSAR in Environmental Research Vol. 18 Nos. 5–6 July–September 2007 543–578
27895,20198.0,,,27896.0,http://chemspider.com/20198,187.0,camphoric acid,O=C(O)C1CCC(C(=O)O)(C)C1(C)C,EPISuite-ChemSpider
20964,6741.0,,,20965.0,http://www.srcinc.com/what-we-do/product.aspx?id=133,87.5,"benzenemethanol, alpha-(trichloromethyl)-, aceta",ClC(Cl)(Cl)C(OC(C)=O)c1ccccc1,PHYSPROP
5130,2054975.0,,,5131.0,http://www.alfa.com/en/GP100W.pgm?DSSTK=L18753,210.0,4-fluoro-3-methylbenzeneboronic acid,B(c1ccc(c(c1)C)F)(O)O,Alfa Aesar
20147,8465.0,,,20148.0,http://www.srcinc.com/what-we-do/product.aspx?id=133,-19.0,1-piperazineethanamine,NCCN1CCNCC1,PHYSPROP
23578,63494.0,,,23579.0,http://www.srcinc.com/what-we-do/product.aspx?id=133,2.0,"1-propanone, 1-(2-hydroxy-5-methylphenyl)-",O=C(CC)c1cc(C)ccc1O,PHYSPROP
26265,10468450.0,,,26266.0,http://www.srcinc.com/what-we-do/product.aspx?id=133,-75.0,tributyrin,O=C(CCC)OC(OC(=O)CCC)(OC(=O)CCC)CC,PHYSPROP
9830,4644660.0,,,9831.0,http://dx.doi.org/10.1021/ci0500132,313.0,"(2E,2'E)-3,3'-[2-(diacetylamino)benzene-1,4-diyl]bisprop-2-enoic acid",O=C(N(c1cc(ccc1C=CC(=O)O)C=CC(=O)O)C(=O)C)C,Karthikeyan M.; Glen R.C.; Bender A. General melting point prediction based on a diverse compound dataset and artificial neural networks. J. Chem. Inf. Model.; 2005; 45(3); 581-1413
24240,77368.0,,,24241.0,http://www.srcinc.com/what-we-do/product.aspx?id=133,44.0,2-hexadecanol,CC(O)CCCCCCCCCCCCCC,PHYSPROP
13174,7728.0,,,13175.0,http://www.amazon.com/dp/B003XEQTLE,-85.0,2-methoxyethanol,OCCOC,Aldrich Chemical Company; Aldrich Catalog-Handbook of Fine Chemicals; Milwaukee; WI; 1984.
5536,732624.0,,,5537.0,http://www.alfa.com/en/GP100W.pgm?DSSTK=H27486,131.0,4-phenoxybenzenesulfonamide,c1ccc(cc1)Oc2ccc(cc2)S(=O)(=O)N,Alfa Aesar
17457,29025.0,,,17458.0,http://www.srcinc.com/what-we-do/product.aspx?id=133,-81.3,isononene,CCCCCCCC=C,PHYSPROP
5970,7743.0,,,5971.0,http://www.alfa.com/en/GP100W.pgm?DSSTK=L17584,-74.0,5-methyl-2-hexanone,CC(C)CCC(=O)C,Alfa Aesar
22407,653.0,,,22408.0,http://www.srcinc.com/what-we-do/product.aspx?id=133,185.5,"n,n-dimethylglycine",CN(C)CC(=O)O,PHYSPROP
8936,165975.0,,,8937.0,http://dx.doi.org/10.1021/ci020280x,140.0,erythrocentaurin,c1cc(C=O)c2CCOC(c2c1)=O,Bergstrom C. A. S.; Norinder U.; Luthman K.; Artursson P. Molecular Descriptors Influencing Melting Point and Their Role in Classification of Solid Drugs. J. Chem. Inf. Comput. Sci.; (Article); 2003; 43(4); 1177-1383
4264,613267.0,,,4265.0,http://www.alfa.com/en/GP100W.pgm?DSSTK=H26364,181.0,4-(4-morpholinylmethyl)benzoic acid,c1cc(ccc1CN2CCOCC2)C(=O)O,Alfa Aesar
14987,5279.0,,,14988.0,http://msds.chem.ox.ac.uk/,127.5,1-[2-(Ethylsulfonyl)ethyl]-2-methyl-5-nitro-1H-imidazole,O=S(=O)(CCn1c(cnc1C)[N+]([O-])=O)CC,academic website
16624,4737.0,,,16625.0,http://www.drugbank.ca/drugs/DB00750,37.5,Prilocaine,O=C(Nc1ccccc1C)C(C)NCCC,DrugBank
25136,455535.0,,,25137.0,http://www.srcinc.com/what-we-do/product.aspx?id=133,-98.3,"1,1,1,3,3,3-hexadeutero-2-propanone",[2H]C([2H])([2H])C(=O)C([2H])([2H])[2H],PHYSPROP
12091,2029268.0,,,12092.0,http://dx.doi.org/10.1021/ci0500132,205.0,"3-(3-nitrophenyl)-6-phenyl-5,6-dihydro[1,2,4]triazolo[3,4-b][1,3,4]thiadiazole",S1c2[nH0][nH0]c([nH0]2NC1c1ccccc1)c1cccc([N+](=O)[O-])c1,Karthikeyan M.; Glen R.C.; Bender A. General melting point prediction based on a diverse compound dataset and artificial neural networks. J. Chem. Inf. Model.; 2005; 45(3); 581-3674
14558,59402.0,,,14559.0,http://www.amazon.com/dp/B003XEQTLE,99.0,4-nitrobenzyl_bromide,O=[N+]([O-])c1ccc(CBr)cc1,Aldrich Chemical Company; Aldrich Catalog-Handbook of Fine Chemicals; Milwaukee; WI; 1984.
16843,3708.0,,,16844.0,http://www.drugbank.ca/drugs/DB01759,153.5,5-Hydroxy-2-(Hydroxymethyl)-4h-Pyran-4-One,O=C1C=C(CO)OC=C1O,DrugBank
15042,62332.0,,,15043.0,http://msds.chem.ox.ac.uk/,50.0,1-Iodo-2-nitrobenzene,Ic1ccccc1[N+](=O)[O-],academic website
18787,12858.0,,,18788.0,http://www.srcinc.com/what-we-do/product.aspx?id=133,140.0,"quinoline, 2-methyl-8-nitro-",[O-][N+](=O)c1cccc2ccc(C)nc12,PHYSPROP
13014,4433.0,,,13015.0,http://dx.doi.org/10.1021/ci0500132,156.0,Omeprazole,[S+]([O-])(Cc1[nH0]cc(C)c(OC)c1C)c1[nH0]c2cc(OC)ccc2[nH]1,Karthikeyan M.; Glen R.C.; Bender A. General melting point prediction based on a diverse compound dataset and artificial neural networks. J. Chem. Inf. Model.; 2005; 45(3); 581-4597
22520,50.0,,,22521.0,http://www.srcinc.com/what-we-do/product.aspx?id=133,115.5,"pentanedioic acid, 2-oxo-",OC(=O)C(=O)CCC(=O)O,PHYSPROP
7744,62581.0,,,7745.0,http://www.alfa.com/en/GP100W.pgm?DSSTK=B24959,75.0,m-xylylene dibromide,BrCc1cccc(c1)CBr,Alfa Aesar
12160,1785395.0,,,12161.0,http://dx.doi.org/10.1021/ci0500132,135.0,"N,N'-diphenylethanebis(thioamide)",S=C(Nc1ccccc1)C(=S)Nc1ccccc1,Karthikeyan M.; Glen R.C.; Bender A. General melting point prediction based on a diverse compound dataset and artificial neural networks. J. Chem. Inf. Model.; 2005; 45(3); 581-3743
27231,21181941.0,,,27232.0,http://scripts.iucr.org/cgi-bin/paper?ta1347,218.35,"(3alpha)-3-Hydroxyabieta-7,15(17)-dien-16-oic acid",O=C(O)/C(=C)[C@@H]2CC1=CC[C@@H]3[C@]([C@H]1CC2)(C)CC[C@@H](O)C3(C)C,IUCr
7400,19970689.0,,,7401.0,http://www.alfa.com/en/GP100W.pgm?DSSTK=B25216,70.0,itaconic anhydride,C=C(CC(=O)O)C(=O)OC(=O)C(=C)CC(=O)O,Alfa Aesar
15239,13837686.0,,,15240.0,http://msds.chem.ox.ac.uk/,7.0,2-Chlorophenol,Oc1ccccc1Cl,academic website
17011,2239.0,,,17012.0,http://www.drugbank.ca/drugs/DB00522,241.0,Bentiromide,Oc3ccc(CC(NC(=O)c1ccccc1)C(=O)Nc2ccc(cc2)C(=O)O)cc3,DrugBank
23107,60586.0,,,23108.0,http://www.srcinc.com/what-we-do/product.aspx?id=133,20.7,"benzoic acid, 2-ethoxy-",CCOc1ccccc1C(=O)O,PHYSPROP
13389,7223.0,,,13390.0,http://www.amazon.com/dp/B003XEQTLE,10.0,benzylamine,NCc1ccccc1,Aldrich Chemical Company; Aldrich Catalog-Handbook of Fine Chemicals; Milwaukee; WI; 1984.
17761,21642.0,,,17762.0,http://www.srcinc.com/what-we-do/product.aspx?id=133,82.4,"2,4,5-trichlorotoluene",Cc1cc(Cl)c(Cl)cc1Cl,PHYSPROP
7231,1013316.0,,,7232.0,http://www.alfa.com/en/GP100W.pgm?DSSTK=L15938,6.0,fenchone,C[C@]12CC[C@H](C1)C(C2=O)(C)C,Alfa Aesar
20259,8105.0,,,20260.0,http://www.srcinc.com/what-we-do/product.aspx?id=133,194.5,"2,2'-biquinoline",c1cccc2ccc(nc12)c3ccc4ccccc4n3,PHYSPROP
14866,2928.0,,,14867.0,http://msds.chem.ox.ac.uk/,108.5,"1,1'-(2,2,2-Trichloroethane-1,1-diyl)bis(4-chlorobenzene)",Clc1ccc(cc1)C(c2ccc(Cl)cc2)C(Cl)(Cl)Cl,academic website
19887,9554.0,,,19888.0,http://www.srcinc.com/what-we-do/product.aspx?id=133,60.0,2-phenylacetophenone,O=C(Cc1ccccc1)c2ccccc2,PHYSPROP
22698,39145.0,,,22699.0,http://www.srcinc.com/what-we-do/product.aspx?id=133,72.0,hexabromobiphenyl,Brc2cc(c1cc(Br)c(Br)cc1Br)c(Br)cc2Br,PHYSPROP
3744,12977.0,,,3745.0,http://www.alfa.com/en/GP100W.pgm?DSSTK=A11477,-63.0,3-butyn-1-ol,C#CCCO,Alfa Aesar
10026,4290287.0,,,10027.0,http://dx.doi.org/10.1021/ci0500132,117.0,"methyl 1,3-dioxo-3,3a,7,7a-tetrahydro-4,7-ethano-2-benzofuran-4(1H)-carboxylate",O=C1OC(=O)C2C1C1C=CC2(CC1)C(=O)OC,Karthikeyan M.; Glen R.C.; Bender A. General melting point prediction based on a diverse compound dataset and artificial neural networks. J. Chem. Inf. Model.; 2005; 45(3); 581-1609
13554,13860491.0,,,13555.0,http://www.amazon.com/dp/B003XEQTLE,51.0,"3,4-dimethylaniline",Cc1cc(N)ccc1C,Aldrich Chemical Company; Aldrich Catalog-Handbook of Fine Chemicals; Milwaukee; WI; 1984.
17514,28170.0,,,17515.0,http://www.srcinc.com/what-we-do/product.aspx?id=133,135.0,chloraniformethane,Clc1ccc(NC(NC=O)C(Cl)(Cl)Cl)cc1Cl,PHYSPROP
11100,2033468.0,,,11101.0,http://dx.doi.org/10.1021/ci0500132,143.0,N-[3-(benzyloxy)-4-methoxybenzyl]benzamide,O=C(NCc1ccc(OC)c(OCc2ccccc2)c1)c1ccccc1,Karthikeyan M.; Glen R.C.; Bender A. General melting point prediction based on a diverse compound dataset and artificial neural networks. J. Chem. Inf. Model.; 2005; 45(3); 581-2683
14502,12219.0,,,14503.0,http://www.questia.com/library/book/physical_properties_of_chemical_compounds_by_robert_rickert_dreisbach.jsp,-29.0,1-bromononane,CCCCCCCCCBr,Dreisbach R. R. Physical Properties of Chemical Compounds; Vol. III; American Chemical Society; Washington; 1961.
14996,2007180.0,,,14997.0,http://msds.chem.ox.ac.uk/,146.0,1-Amino-3-phenoxypropan-2-ol,NCC(O)COc1ccccc1,academic website
14425,33137.0,,,14426.0,http://www.amazon.com/dp/B003XEQTLE,28.0,m-bromophenylacetonitrile,Brc1cc(CC#N)ccc1,Aldrich Chemical Company; Aldrich Catalog-Handbook of Fine Chemicals; Milwaukee; WI; 1984.