,csid,donotuse,donotusebecause,key,link,mpC,name,smiles,source
19039,11891.0,,,19040.0,http://www.srcinc.com/what-we-do/product.aspx?id=133,45.5,1-pentadecanol,CCCCCCCCCCCCCCCO,PHYSPROP
22992,59556.0,,,22993.0,http://www.srcinc.com/what-we-do/product.aspx?id=133,40.3,"2-ethyl-2-methyl-1,3-propanediol",CC(CC)(CO)CO,PHYSPROP
586,7710.0,,,587.0,http://www.alfa.com/en/GP100W.pgm?DSSTK=A14687,-34.0,"1,3-dibromopropane",C(CBr)CBr,Alfa Aesar
904,9346048.0,,,905.0,http://www.alfa.com/en/GP100W.pgm?DSSTK=H52289,178.0,(2-aminoethoxy)acetic acid,C(COCC(=O)O)N,Alfa Aesar
22072,2623.0,,,22073.0,http://www.srcinc.com/what-we-do/product.aspx?id=133,90.0,maolate,Clc1ccc(OCC(O)COC(N)=O)cc1,PHYSPROP
134,558328.0,,,135.0,http://www.alfa.com/en/GP100W.pgm?DSSTK=H32874,224.0,1-methyl-1h-pyrazole-5-carboxylic acid,Cn1c(ccn1)C(=O)O,Alfa Aesar
21438,5531.0,,,21439.0,http://www.srcinc.com/what-we-do/product.aspx?id=133,178.5,zomepirac,Cc2cc(CC(=O)O)n(C)c2C(=O)c1ccc(Cl)cc1,PHYSPROP
15157,11961.0,,,15158.0,http://msds.chem.ox.ac.uk/,74.0,"2,4,6-Trichloroaniline",Clc1cc(Cl)cc(Cl)c1N,academic website
18469,14709.0,,,18470.0,http://www.srcinc.com/what-we-do/product.aspx?id=133,122.0,metaxalone,Cc1cc(cc(C)c1)OCC2CNC(=O)O2,PHYSPROP
26587,13865426.0,,,26588.0,http://www.srcinc.com/what-we-do/product.aspx?id=133,-45.0,acetoacetic ester,CC(=O)CC(=O)OCC,PHYSPROP
22962,59197.0,,,22963.0,http://www.srcinc.com/what-we-do/product.aspx?id=133,100.0,etofibrate,Clc1ccc(cc1)OC(C)(C)C(=O)OCCOC(=O)c2cccnc2,PHYSPROP
14427,7177.0,,,14428.0,http://www.amazon.com/dp/B003XEQTLE,58.0,ethyl_4-nitrobenzoate,O=[N+]([O-])c1ccc(cc1)C(=O)OCC,Aldrich Chemical Company; Aldrich Catalog-Handbook of Fine Chemicals; Milwaukee; WI; 1984.
23759,66554.0,,,23760.0,http://www.srcinc.com/what-we-do/product.aspx?id=133,60.0,2-(acetyloxy)-4-bromo-benzoic acid,Brc1cc(c(OC(C)=O)cc1)C(=O)O,PHYSPROP
7433,1253.0,,,7434.0,http://www.alfa.com/en/GP100W.pgm?DSSTK=A14223,120.0,mandelic acid,c1ccc(cc1)C(C(=O)O)O,Alfa Aesar
20807,7016.0,,,20808.0,http://www.srcinc.com/what-we-do/product.aspx?id=133,-39.0,3-pentanone,CCC(=O)CC,PHYSPROP
14542,67299.0,,,14543.0,http://de.wikipedia.org/wiki/Beilsteins_Handbuch_der_Organischen_Chemie,21.0,4-bromophenyl_acetate,Brc1ccc(OC(C)=O)cc1,Beilstein F. K.; Beilsteins Handbuch der Organischen Chemie. Springer; Berlin; 1972.
25233,543422.0,,,25234.0,http://www.srcinc.com/what-we-do/product.aspx?id=133,190.0,"4-pregnene-17a,20b,21-triol-3-one",OCC(O)C3(O)CCC2C4CCC1=CC(=O)CCC1(C)C4CCC23C,PHYSPROP
18939,12160.0,,,18940.0,http://www.srcinc.com/what-we-do/product.aspx?id=133,84.0,"glutaric acid, 2,2-dimethyl-",CC(C)(CCC(O)=O)C(=O)O,PHYSPROP
8832,3438.0,,,8833.0,http://dx.doi.org/10.1021/ci020280x,148.0,haloperidol,OC2(CCN(CCCC(=O)c1ccc(F)cc1)CC2)c3ccc(Cl)cc3,Bergstrom C. A. S.; Norinder U.; Luthman K.; Artursson P. Molecular Descriptors Influencing Melting Point and Their Role in Classification of Solid Drugs. J. Chem. Inf. Comput. Sci.; (Article); 2003; 43(4); 1177-1279
22406,654.0,,,22407.0,http://www.srcinc.com/what-we-do/product.aspx?id=133,-92.2,dimethylamine,CNC,PHYSPROP
21875,3369.0,,,21876.0,http://www.srcinc.com/what-we-do/product.aspx?id=133,163.0,glybuzole,O=S(=O)(Nc1nnc(s1)C(C)(C)C)c2ccccc2,PHYSPROP
3371,4444935.0,,,3372.0,http://www.alfa.com/en/GP100W.pgm?DSSTK=L14223,215.0,"3,5,7-trihydroxyflavone",c1ccc(cc1)c2c(c(=O)c3c(cc(cc3o2)O)O)O,Alfa Aesar
27578,21106172.0,,,27579.0,http://www.sigmaaldrich.com/united-states.html,65.0,"2,4,6-trichlorophenol",c1c(cc(c(c1Cl)O)Cl)Cl,Sigma-Aldrich
5904,61093.0,,,5905.0,http://www.alfa.com/en/GP100W.pgm?DSSTK=B25381,39.0,5-fluoro-2-methylaniline,Cc1ccc(cc1N)F,Alfa Aesar
24574,91750.0,,,24575.0,http://www.srcinc.com/what-we-do/product.aspx?id=133,174.5,"3-furancarboxylic acid, tetrahydro-2,2-dimethyl-",OC(=O)C1CC(=O)OC1(C)C,PHYSPROP
24488,85192.0,,,24489.0,http://www.srcinc.com/what-we-do/product.aspx?id=133,40.0,"benzene, nonadecyl-",CCCCCCCCCCCCCCCCCCCc1ccccc1,PHYSPROP
28583,5233.0,,,28584.0,http://dx.doi.org/10.1016/j.chemosphere.2013.10.095,275.0,Thalidomide,C1CC(=O)NC(=O)C1N2C(=O)C3=CC=CC=C3C2=O,Abraham M.H. and Acree Jr. W.E. The solubility of liquid and solid compounds in dry octan-1-ol. Chemosphere (2013)
19813,9847.0,,,19814.0,http://www.srcinc.com/what-we-do/product.aspx?id=133,127.0,glucamine,OC(C(O)CN)C(O)C(O)CO,PHYSPROP
5720,135.0,,,5721.0,http://www.alfa.com/en/GP100W.pgm?DSSTK=B24788,157.0,5-aminovaleric acid,C(CCN)CC(=O)O,Alfa Aesar
12059,2029329.0,,,12060.0,http://dx.doi.org/10.1021/ci0500132,113.0,"6-(4-chlorophenyl)-3-(4-ethoxyphenyl)[1,2,4]triazolo[3,4-b][1,3,4]thiadiazole",Clc1ccc(cc1)C=1Sc2[nH0][nH0]c([nH0]2N=1)c1ccc(OCC)cc1,Karthikeyan M.; Glen R.C.; Bender A. General melting point prediction based on a diverse compound dataset and artificial neural networks. J. Chem. Inf. Model.; 2005; 45(3); 581-3642
4286,78472.0,,,4287.0,http://www.alfa.com/en/GP100W.pgm?DSSTK=B20641,115.0,4-(bromomethyl)benzonitrile,c1cc(ccc1CBr)C#N,Alfa Aesar
7549,69985.0,,,7550.0,http://www.alfa.com/en/GP100W.pgm?DSSTK=A12389,107.0,methyl 3-chloro-4-hydroxybenzoate,COC(=O)c1ccc(c(c1)Cl)O,Alfa Aesar
4917,25995.0,,,4918.0,http://www.alfa.com/en/GP100W.pgm?DSSTK=L14034,152.0,4-chloro-3-nitrobenzamide,c1cc(c(cc1C(=O)N)[N+](=O)[O-])Cl,Alfa Aesar
27526,89258.0,,,27527.0,http://dx.doi.org/10.1016/j.chemosphere.2013.10.095,206.0,"2-Methyl-3,5-dinitrobenzoic acid",CC1=C(C=C(C=C1[N+](=O)[O-])[N+](=O)[O-])C(=O)O,Abraham M.H. and Acree Jr. W.E. The solubility of liquid and solid compounds in dry octan-1-ol. Chemosphere (2013)
3442,16499369.0,,,3443.0,http://www.alfa.com/en/GP100W.pgm?DSSTK=H26496,35.0,"3,5-difluoro-2-methoxybenzonitrile",COc1c(cc(cc1F)F)C#N,Alfa Aesar
17446,29069.0,,,17447.0,http://www.srcinc.com/what-we-do/product.aspx?id=133,163.5,"3-bromo-1-chloro-5,5-dimethylhydantoin",CC1(C)C(=O)N(Br)C(=O)N1Cl,PHYSPROP
1401,517437.0,,,1402.0,http://www.alfa.com/en/GP100W.pgm?DSSTK=L12611,45.0,"2,4,6-trimethylphenyl isocyanate",Cc1cc(c(c(c1)C)N=C=O)C,Alfa Aesar
13979,86676.0,,,13980.0,http://de.wikipedia.org/wiki/Beilsteins_Handbuch_der_Organischen_Chemie,62.0,hydroquinone_monoacetate,O=C(C)Oc1ccc(O)cc1,Beilstein F. K.; Beilsteins Handbuch der Organischen Chemie. Springer; Berlin; 1972.
24179,73507.0,,,24180.0,http://www.srcinc.com/what-we-do/product.aspx?id=133,-34.4,hexanoic acid heptyl ester,CCCCCCCOC(=O)CCCCC,PHYSPROP
26028,10438902.0,,,26029.0,http://www.srcinc.com/what-we-do/product.aspx?id=133,126.5,"2h-benzotriazole-2-acetamide, ?-propyl-",NC(=O)C(CCC)n1nc2ccccc2n1,PHYSPROP
13712,8356.0,,,13713.0,http://www.amazon.com/dp/B002IYRJWI,-75.0,sec-butylbenzene,CCC(C)c1ccccc1,American Petroleum Institute. Research Project 44; Selected Values of Properties of Hydrocarbons and Related Compounds. Texas A & M University; College Station; TX; 1973.
1615,60122.0,,,1616.0,http://www.alfa.com/en/GP100W.pgm?DSSTK=L04296,85.0,"2,5-diethoxyaniline",CCOc1ccc(c(c1)N)OCC,Alfa Aesar
27681,132.0,,,27682.0,http://dx.doi.org/10.1016/j.chemosphere.2013.10.095,216.0,4-Hydroxybenzoic acid,C1=CC(=CC=C1C(=O)O)O,Abraham M.H. and Acree Jr. W.E. The solubility of liquid and solid compounds in dry octan-1-ol. Chemosphere (2013)
10011,4354169.0,,,10012.0,http://dx.doi.org/10.1021/ci0500132,187.0,"5,8-dihydroxy-7-(2-hydroxypropyl)-1,2,4a-trimethyl-4,4a-dihydrophenanthrene-3,6-dione",O=C1CC2(C)C(=CC=C3C(O)=C(CC(O)C)C(=O)C(O)=C32)C(C)=C1C,Karthikeyan M.; Glen R.C.; Bender A. General melting point prediction based on a diverse compound dataset and artificial neural networks. J. Chem. Inf. Model.; 2005; 45(3); 581-1594
21661,4574.0,,,21662.0,http://www.srcinc.com/what-we-do/product.aspx?id=133,146.3,pentazocine,C/C(C)=CCN2CCC1(C)c3cc(O)ccc3CC2C1C,PHYSPROP
5214,1554684.0,,,5215.0,http://www.alfa.com/en/GP100W.pgm?DSSTK=B22115,118.0,4-hydroxy-4'-iodobiphenyl,c1cc(ccc1c2ccc(cc2)I)O,Alfa Aesar
6434,125604.0,,,6435.0,http://www.alfa.com/en/GP100W.pgm?DSSTK=L08140,87.0,benzo[b]thiophene-2-carbonyl chloride,c1ccc2c(c1)cc(s2)C(=O)Cl,Alfa Aesar
27502,0.0,,,27503.0,http://www.beilstein-journals.org/bjoc/single/articleFullText.htm?publicId=1860-5397-8-21&vt=f&bpn=home#T3,110.5,2-Benzyl-3-cyclohexenylisoindolin-1-one,C(C1=CC=CC=C1)N3C(C2=CC=CC=C2C3=O)C4=CCCCC4,Beilstein Journal of Organic Chemistry
26989,21172138.0,,,26990.0,http://www.srcinc.com/what-we-do/product.aspx?id=133,32.0,"2,4-dichloro-1-ethoxy-benzene",Clc1cc(Cl)ccc1OCC,PHYSPROP
26221,10443427.0,,,26222.0,http://www.srcinc.com/what-we-do/product.aspx?id=133,227.5,"benzamide, n-(2-cyclopentyl-2h-benzotriazol-5-yl",[O-][N+](=O)c1ccc(cc1)C(=O)Nc2ccc3nn(nc3c2)C4CCCC4,PHYSPROP
15223,4103087.0,,,15224.0,http://msds.chem.ox.ac.uk/,169.0,"2-Amino-4,6-dinitrophenol",Nc1cc(cc([N+]([O-])=O)c1O)[N+]([O-])=O,academic website
10238,2072962.0,,,10239.0,http://dx.doi.org/10.1021/ci0500132,150.0,"benzyl 1,6-dimethyl-4-(2-naphthyl)-2-oxo-1,2,3,4-tetrahydropyrimidine-5-carboxylate",O=C1NC(c2ccc3ccccc3c2)C(=C(N1C)C)C(=O)OCc1ccccc1,Karthikeyan M.; Glen R.C.; Bender A. General melting point prediction based on a diverse compound dataset and artificial neural networks. J. Chem. Inf. Model.; 2005; 45(3); 581-1821
16738,5382.0,,,16739.0,http://www.drugbank.ca/drugs/DB00726,45.0,Trimipramine,CN(C)CC(C)CN2c3ccccc3CCc1ccccc12,DrugBank
22433,485.0,,,22434.0,http://www.srcinc.com/what-we-do/product.aspx?id=133,184.7,"l-proline, 5-oxo-",O=C(O)C1CCC(=O)N1,PHYSPROP
25277,553649.0,,,25278.0,http://www.srcinc.com/what-we-do/product.aspx?id=133,124.0,stilbene,C(=C/c1ccccc1)c2ccccc2,PHYSPROP
13964,88942.0,,,13965.0,http://www.amazon.com/dp/B003XEQTLE,133.0,m-methoxybenzamide,COc1cc(ccc1)C(N)=O,Aldrich Chemical Company; Aldrich Catalog-Handbook of Fine Chemicals; Milwaukee; WI; 1984.
8102,85864.0,,,8103.0,http://www.alfa.com/en/GP100W.pgm?DSSTK=B20975,218.0,N-methylmaleic hydrazide,O=C1C=C/C(=O)N(N1)C,Alfa Aesar
2240,61788.0,,,2241.0,http://www.alfa.com/en/GP100W.pgm?DSSTK=A14393,299.0,2-bromoterephthalic acid,c1cc(c(cc1C(=O)O)Br)C(=O)O,Alfa Aesar
17844,20198.0,,,17845.0,http://www.srcinc.com/what-we-do/product.aspx?id=133,189.1,camphoric acid,CC1(CCC(C(=O)O)C1(C)C)C(=O)O,PHYSPROP
7870,68235.0,,,7871.0,http://www.alfa.com/en/GP100W.pgm?DSSTK=L08796,85.0,"N,N-dimethylsuccinamic acid",CN(C)C(=O)CCC(=O)O,Alfa Aesar
1251,2016405.0,,,1252.0,http://www.alfa.com/en/GP100W.pgm?DSSTK=B22781,238.0,"2,3-dichlorobenzeneboronic acid",B(c1cccc(c1Cl)Cl)(O)O,Alfa Aesar
9002,29131.0,,,9003.0,http://dx.doi.org/10.1021/ci020280x,203.0,ursodiol,CC13CCC(O)CC1CC(O)C4C2CCC(C(C)CCC(=O)O)C2(C)CCC34,Bergstrom C. A. S.; Norinder U.; Luthman K.; Artursson P. Molecular Descriptors Influencing Melting Point and Their Role in Classification of Solid Drugs. J. Chem. Inf. Comput. Sci.; (Article); 2003; 43(4); 1177-1449
2724,4296769.0,,,2725.0,http://www.alfa.com/en/GP100W.pgm?DSSTK=H32796,246.0,2-hydroxy-5-nitronicotinic acid,c1c(cnc(c1C(=O)O)O)[N+](=O)[O-],Alfa Aesar
8596,13352.0,,,8597.0,http://www.alfa.com/en/GP100W.pgm?DSSTK=A14021,145.0,tri(p-tolyl)phosphine,Cc1ccc(cc1)P(c2ccc(cc2)C)c3ccc(cc3)C,Alfa Aesar
21761,3923.0,,,21762.0,http://www.srcinc.com/what-we-do/product.aspx?id=133,202.5,meprednisone,OCC(=O)C4(O)C(C)CC3C2CCC1=CC(=O)C=CC1(C)C2C(=O)CC34C,PHYSPROP
1894,13835861.0,,,1895.0,http://www.alfa.com/en/GP100W.pgm?DSSTK=A17814,26.0,2-amino-2-methyl-1-propanol,CC(C)(CO)N,Alfa Aesar
1360,19526.0,,,1361.0,http://www.alfa.com/en/GP100W.pgm?DSSTK=L09183,82.0,"2,4,6-tribromo-3-methylphenol",Cc1c(cc(c(c1Br)O)Br)Br,Alfa Aesar
7003,964.0,,,7004.0,http://www.alfa.com/en/GP100W.pgm?DSSTK=L15983,90.0,D-pantolactone,CC1(COC(=O)C1O)C,Alfa Aesar
10775,2034239.0,,,10776.0,http://dx.doi.org/10.1021/ci0500132,189.0,"3-ethyl-6-phenyl-5H-pyrazolo[5,1-c][1,2,4]triazole",[nH0]1[nH0]c([nH0]2[nH]c(cc12)c1ccccc1)CC,Karthikeyan M.; Glen R.C.; Bender A. General melting point prediction based on a diverse compound dataset and artificial neural networks. J. Chem. Inf. Model.; 2005; 45(3); 581-2358
25217,531832.0,,,25218.0,http://www.srcinc.com/what-we-do/product.aspx?id=133,155.0,"1,1'-biphenyl, 2,2'-dimethoxy-",COc2ccccc2c1ccccc1OC,PHYSPROP
6211,59961.0,,,6212.0,http://www.alfa.com/en/GP100W.pgm?DSSTK=L07119,280.0,7-chloro-4-hydroxyquinoline,c1cc2c(ccnc2cc1Cl)O,Alfa Aesar
16528,392618.0,,,16529.0,http://www.drugbank.ca/drugs/DB00523,189.5,Alitretinoin,CC=1CCCC(C)(C)C=1/C=CC(C)=CC=CC(C)=CC(=O)O,DrugBank
17356,31991.0,,,17357.0,http://www.srcinc.com/what-we-do/product.aspx?id=133,33.4,ethiofencarb,O=C(Oc1ccccc1CSCC)NC,PHYSPROP
15446,21106017.0,,,15447.0,http://msds.chem.ox.ac.uk/,115.0,"4-Chloro-3,5-dimethylphenol",Oc1cc(C)c(Cl)c(C)c1,academic website
23461,62668.0,,,23462.0,http://www.srcinc.com/what-we-do/product.aspx?id=133,191.0,"benzoic acid, 2-(carboxymethoxy)-",O=C(O)c1ccccc1OCC(=O)O,PHYSPROP
21646,4604.0,,,21647.0,http://www.srcinc.com/what-we-do/product.aspx?id=133,39.0,phenoxybenzamine,CC(COc1ccccc1)N(Cc2ccccc2)CCCl,PHYSPROP
1085,9521.0,,,1086.0,http://www.alfa.com/en/GP100W.pgm?DSSTK=A11403,-40.0,"2,2,2-trifluoroacetophenone",c1ccc(cc1)C(=O)C(F)(F)F,Alfa Aesar
21599,4762.0,,,21600.0,http://www.srcinc.com/what-we-do/product.aspx?id=133,77.0,propachlor,CC(C)N(C(=O)CCl)c1ccccc1,PHYSPROP
22261,1262.0,,,22262.0,http://www.srcinc.com/what-we-do/product.aspx?id=133,153.0,naprosyn,O=C(O)C(C)c1ccc2cc(ccc2c1)OC,PHYSPROP
28136,3322.0,,,28137.0,http://dx.doi.org/10.1021/cg100098z,208.0,furosemide,O=S(=O)(N)c1c(Cl)cc(c(C(=O)O)c1)NCc2occc2,Crystal Growth and Design
4371,120322.0,,,4372.0,http://www.alfa.com/en/GP100W.pgm?DSSTK=B20074,36.0,4'-(trifluoromethyl)propiophenone,CCC(=O)c1ccc(cc1)C(F)(F)F,Alfa Aesar
13991,11565.0,,,13992.0,http://www.amazon.com/dp/B003XEQTLE,235.0,"3,5-diaminobenzoic_acid",Nc1cc(cc(N)c1)C(=O)O,Aldrich Chemical Company; Aldrich Catalog-Handbook of Fine Chemicals; Milwaukee; WI; 1984.
17542,26915.0,,,17543.0,http://www.srcinc.com/what-we-do/product.aspx?id=133,72.5,iodofenphos,Clc1cc(I)c(Cl)cc1OP(=S)(OC)OC,PHYSPROP
13361,11180.0,,,13362.0,http://www.amazon.com/dp/B002IYRJWI,-10.0,"2,3-dimethyl-2-butanol",CC(C)C(C)(C)O,American Petroleum Institute. Research Project 44; Selected Values of Properties of Hydrocarbons and Related Compounds. Texas A & M University; College Station; TX; 1973.
6260,149045.0,,,6261.0,http://www.alfa.com/en/GP100W.pgm?DSSTK=A17692,134.0,8-hydroxyjulolidine,c1cc(c2c3c1CCCN3CCC2)O,Alfa Aesar
15137,5806.0,,,15138.0,http://msds.chem.ox.ac.uk/,70.0,"2,3,4,6-Tetrachlorophenol",Clc1cc(Cl)c(Cl)c(Cl)c1O,academic website
12197,1454827.0,,,12198.0,http://dx.doi.org/10.1021/ci0500132,196.0,"3,3,3-trifluoro-N-(4-methylphenyl)-2-(trifluoromethyl)propanamide",FC(F)(F)C(C(=O)Nc1ccc(C)cc1)C(F)(F)F,Karthikeyan M.; Glen R.C.; Bender A. General melting point prediction based on a diverse compound dataset and artificial neural networks. J. Chem. Inf. Model.; 2005; 45(3); 581-3780
5814,2058386.0,,,5815.0,http://www.alfa.com/en/GP100W.pgm?DSSTK=B23629,62.0,5-chloro-2-(trifluoromethyl)phenylacetonitrile,c1cc(c(cc1Cl)CC#N)C(F)(F)F,Alfa Aesar
7975,599517.0,,,7976.0,http://www.alfa.com/en/GP100W.pgm?DSSTK=L08826,134.0,N-boc-D-proline,CC(C)(C)OC(=O)N1CCC[C@@H]1C(=O)O,Alfa Aesar
8331,13835151.0,,,8332.0,http://www.alfa.com/en/GP100W.pgm?DSSTK=A13698,44.0,p-toluidine,Cc1ccc(cc1)N,Alfa Aesar
8024,1512834.0,,,8025.0,http://www.alfa.com/en/GP100W.pgm?DSSTK=L18052,110.0,N-chloroacetylisonipecotic acid,C1CN(CCC1C(=O)O)C(=O)CCl,Alfa Aesar
12944,9961.0,,,12945.0,http://dx.doi.org/10.1021/ci0500132,63.0,diphenylacetylene,C(#Cc1ccccc1)c1ccccc1,Karthikeyan M.; Glen R.C.; Bender A. General melting point prediction based on a diverse compound dataset and artificial neural networks. J. Chem. Inf. Model.; 2005; 45(3); 581-4527
26982,21171515.0,,,26983.0,http://www.srcinc.com/what-we-do/product.aspx?id=133,9.0,"benzene, 2-bromo-1,4-dimethyl-",Cc1cc(Br)c(C)cc1,PHYSPROP
7665,13621.0,,,7666.0,http://www.alfa.com/en/GP100W.pgm?DSSTK=42399,48.0,methyl eicosanoate,CCCCCCCCCCCCCCCCCCCC(=O)OC,Alfa Aesar
26783,21106162.0,,,26784.0,http://www.srcinc.com/what-we-do/product.aspx?id=133,-42.0,"1,2,3,4-tetrafluorobenzene",Fc1ccc(F)c(F)c1F,PHYSPROP
11613,2030886.0,,,11614.0,http://dx.doi.org/10.1021/ci0500132,154.0,"2,2'-(4,6-dinitrobenzene-1,3-diyl)dioxirane",O=[N+]([O-])c1cc([N+](=O)[O-])c(cc1C1OC1)C1OC1,Karthikeyan M.; Glen R.C.; Bender A. General melting point prediction based on a diverse compound dataset and artificial neural networks. J. Chem. Inf. Model.; 2005; 45(3); 581-3196
2422,2038377.0,,,2423.0,http://www.alfa.com/en/GP100W.pgm?DSSTK=A11582,11.0,2-chloro-6-iodotoluene,Cc1c(cccc1I)Cl,Alfa Aesar
7339,9905.0,,,7340.0,http://www.alfa.com/en/GP100W.pgm?DSSTK=A11000,-21.0,indoline,c1ccc2c(c1)CCN2,Alfa Aesar
12719,86322.0,,,12720.0,http://dx.doi.org/10.1021/ci0500132,110.0,"2,3-di(acetyloxy)-6,8-dioxabicyclo[3.2.1]oct-4-yl acetate",O=C(OC1C2OCC(O2)C(OC(=O)C)C1OC(=O)C)C,Karthikeyan M.; Glen R.C.; Bender A. General melting point prediction based on a diverse compound dataset and artificial neural networks. J. Chem. Inf. Model.; 2005; 45(3); 581-4302
3498,87662.0,,,3499.0,http://www.alfa.com/en/GP100W.pgm?DSSTK=B20647,139.0,"3,5-dimethyl-4-iodo-1h-pyrazole",Cc1c(c(n[nH]1)C)I,Alfa Aesar
19365,11185.0,,,19366.0,http://www.srcinc.com/what-we-do/product.aspx?id=133,100.7,"2,2,3,3-tetramethylbutane",CC(C)(C)C(C)(C)C,PHYSPROP
8213,7914.0,,,8214.0,http://www.alfa.com/en/GP100W.pgm?DSSTK=A13812,11.0,palmitoyl chloride,CCCCCCCCCCCCCCCC(=O)Cl,Alfa Aesar
12417,523652.0,,,12418.0,http://dx.doi.org/10.1021/ci0500132,205.0,"2,2'-Dibenzoylazobenzene",O=C(c1ccccc1)c1ccccc1N=Nc1ccccc1C(=O)c1ccccc1,Karthikeyan M.; Glen R.C.; Bender A. General melting point prediction based on a diverse compound dataset and artificial neural networks. J. Chem. Inf. Model.; 2005; 45(3); 581-4000
10996,2033812.0,,,10997.0,http://dx.doi.org/10.1021/ci0500132,56.0,"2-methylbicyclo[4.2.0]octa-1,3,5-trien-7-one",O=C1Cc2c1cccc2C,Karthikeyan M.; Glen R.C.; Bender A. General melting point prediction based on a diverse compound dataset and artificial neural networks. J. Chem. Inf. Model.; 2005; 45(3); 581-2579
16327,43067.0,,,16328.0,http://www.drugbank.ca/drugs/DB00732,189.5,Atracurium,COc1ccc(cc1OC)CC5c6cc(OC)c(OC)cc6CC[N+]5(C)CCC(=O)OCCCCCOC(=O)CC[N+]3(C)CCc4cc(OC)c(OC)cc4C3Cc2ccc(OC)c(OC)c2,DrugBank
26003,10438285.0,,,26004.0,http://www.srcinc.com/what-we-do/product.aspx?id=133,46.5,"1,2,4-triazole,1-(3,4-dichlorobenzyl)-",Clc1ccc(cc1Cl)Cn2cncn2,PHYSPROP
16015,9181.0,,,16016.0,http://msds.chem.ox.ac.uk/,78.0,Nonadecafluorodecanoic acid,FC(F)(C(F)(F)C(=O)O)C(F)(F)C(F)(F)C(F)(F)C(F)(F)C(F)(F)C(F)(F)C(F)(F)F,academic website
16799,532.0,,,16800.0,http://www.drugbank.ca/drugs/DB01702,128.5,"2-(3,4-Dihydroxyphenyl)Acetic Acid",Oc1ccc(CC(=O)O)cc1O,DrugBank
9720,4645283.0,,,9721.0,http://dx.doi.org/10.1021/ci0500132,80.0,(2E)-1-phenyl-3-(5-phenyl-2-furyl)prop-2-en-1-one,O=C(C=Cc1oc(cc1)c1ccccc1)c1ccccc1,Karthikeyan M.; Glen R.C.; Bender A. General melting point prediction based on a diverse compound dataset and artificial neural networks. J. Chem. Inf. Model.; 2005; 45(3); 581-1303
25695,4512641.0,,,25696.0,http://www.srcinc.com/what-we-do/product.aspx?id=133,-124.3,"2-hexene, 5-methyl-, (e)-",CC(C)CC=CC,PHYSPROP
10994,2033814.0,,,10995.0,http://dx.doi.org/10.1021/ci0500132,46.0,"4-methylbicyclo[4.2.0]octa-1,3,5-trien-7-one",O=C1Cc2ccc(C)cc21,Karthikeyan M.; Glen R.C.; Bender A. General melting point prediction based on a diverse compound dataset and artificial neural networks. J. Chem. Inf. Model.; 2005; 45(3); 581-2577
15297,14532.0,,,15298.0,http://msds.chem.ox.ac.uk/,-7.0,2-Methylpentadecane,CC(C)CCCCCCCCCCCCC,academic website
28284,2388.0,,,28285.0,http://www.sigmaaldrich.com/united-states.html,57.5,n-butyl 4-aminobenzoate,O=C(OCCCC)c1ccc(N)cc1,Sigma-Aldrich
10720,2034565.0,,,10721.0,http://dx.doi.org/10.1021/ci0500132,246.0,"5-methyl-3-[(E)-naphthalen-2-yldiazenyl]-7-(trifluoromethyl)pyrazolo[1,5-a]pyrimidin-2-amine",FC(F)(F)C=1[nH0]2[nH0]c(N)c(N=Nc3ccc4ccccc4c3)c2N=C(C)C=1,Karthikeyan M.; Glen R.C.; Bender A. General melting point prediction based on a diverse compound dataset and artificial neural networks. J. Chem. Inf. Model.; 2005; 45(3); 581-2303