,csid,donotuse,donotusebecause,key,link,mpC,name,smiles,source
24174,73413.0,,,24175.0,http://www.srcinc.com/what-we-do/product.aspx?id=133,45.5,chloro-acetic acid 2(2-chloroacetoxy)ethyl ester,O=C(CCl)OCCOC(=O)CCl,PHYSPROP
28421,4590.0,,,28422.0,http://dx.doi.org/10.1016/j.chemosphere.2013.10.095,135.0,Phenacetin,CCOC1=CC=C(C=C1)NC(=O)C,Abraham M.H. and Acree Jr. W.E. The solubility of liquid and solid compounds in dry octan-1-ol. Chemosphere (2013)
6435,643621.0,,,6436.0,http://www.alfa.com/en/GP100W.pgm?DSSTK=L19345,31.0,benzo[b]thiophene-2-carboxaldehyde,c1ccc2c(c1)cc(s2)C=O,Alfa Aesar
16997,5552.0,,,16998.0,http://www.drugbank.ca/drugs/DB00860,235.0,Prednisolone,OCC(=O)[C@@]4(O)CC[C@@H]3[C@]4(C)C[C@H](O)[C@H]2[C@H]3CCC1=CC(=O)C=C[C@@]12C,DrugBank
6567,76286.0,,,6568.0,http://www.alfa.com/en/GP100W.pgm?DSSTK=A11960,22.0,bis(trimethylsilyl)acetylene,C[Si](C)(C)C#C[Si](C)(C)C,Alfa Aesar
4534,212230.0,,,4535.0,http://www.alfa.com/en/GP100W.pgm?DSSTK=L11927,79.0,4-acetylphenyl isothiocyanate,CC(=O)c1ccc(cc1)N=C=S,Alfa Aesar
27975,7026.0,,,27976.0,http://pubs.acs.org/doi/pdf/10.1021/ja01858a004,-20.0,cyclopentanol,C1(CCCC1)O,White AH; Bishop WS Journal of the American Chemical Society; 62(1); 8-16 (1940)
10594,2034842.0,,,10595.0,http://dx.doi.org/10.1021/ci0500132,211.0,"ethyl 4-{[5-(4-fluorophenyl)-4,6-dioxo-4,5,6,6a-tetrahydro-3aH-pyrrolo[3,4-d]isoxazol-3-yl]carbonyl}-5-methyl-1-(4-methylphenyl)-1H-pyrazole-3-carboxylate",Fc1ccc(N2C(=O)C3ON=C(C(=O)c4c([nH0]([nH0]c4C(=O)OCC)c4ccc(C)cc4)C)C3C2=O)cc1,Karthikeyan M.; Glen R.C.; Bender A. General melting point prediction based on a diverse compound dataset and artificial neural networks. J. Chem. Inf. Model.; 2005; 45(3); 581-2177
11982,2029604.0,,,11983.0,http://dx.doi.org/10.1021/ci0500132,161.0,"3,17-dipropoxyandrostan-7-one",O=C1CC2CC(OCCC)CCC2(C)C2CCC3(C)C(CCC3OCCC)C12,Karthikeyan M.; Glen R.C.; Bender A. General melting point prediction based on a diverse compound dataset and artificial neural networks. J. Chem. Inf. Model.; 2005; 45(3); 581-3565
6324,6127.0,,,6325.0,http://www.alfa.com/en/GP100W.pgm?DSSTK=43262,-112.0,acetyl chloride,CC(=O)Cl,Alfa Aesar
28382,15474.0,,,28383.0,http://www.aapspharmscitech.org/view.asp?art=pt070126,149.0,PCB-15,Clc2ccc(c1ccc(Cl)cc1)cc2,Sepassi K; Yalkowsky SH; AAPS PharmSciTech; 7(1); E1-E8 (2006)
16443,51809.0,,,16444.0,http://www.drugbank.ca/drugs/DB00724,293.0,Imiquimod,CC(C)Cn3cnc2c(N)nc1ccccc1c23,DrugBank
19480,10895.0,,,19481.0,http://www.srcinc.com/what-we-do/product.aspx?id=133,114.0,6-aminoquinoline,Nc1ccc2ncccc2c1,PHYSPROP
1284,2015517.0,,,1285.0,http://www.alfa.com/en/GP100W.pgm?DSSTK=B22965,61.0,"2,3-difluoro-6-nitrophenol",c1cc(c(c(c1[N+](=O)[O-])O)F)F,Alfa Aesar
26771,21106129.0,,,26772.0,http://www.srcinc.com/what-we-do/product.aspx?id=133,33.5,"phenol, 2-methoxy-4-(1-propenyl)-, (e)-",Oc1ccc(cc1OC)C=CC,PHYSPROP
3305,14279475.0,,,3306.0,http://www.alfa.com/en/GP100W.pgm?DSSTK=H32326,154.0,"3,4-difluoro-2-methylbenzoic acid",Cc1c(ccc(c1F)F)C(=O)O,Alfa Aesar
20029,8902.0,,,20030.0,http://www.srcinc.com/what-we-do/product.aspx?id=133,-8.0,pyridazine,c1cccnn1,PHYSPROP
12487,350639.0,,,12488.0,http://dx.doi.org/10.1021/ci0500132,222.0,"3,3'-oxybis(2-benzofuran-1(3H)-one)",O=C1OC(OC2OC(=O)c3ccccc32)c2ccccc21,Karthikeyan M.; Glen R.C.; Bender A. General melting point prediction based on a diverse compound dataset and artificial neural networks. J. Chem. Inf. Model.; 2005; 45(3); 581-4070
18312,15486.0,,,18313.0,http://www.srcinc.com/what-we-do/product.aspx?id=133,-11.0,4-decanol,CCCCCCC(O)CCC,PHYSPROP
5168,61309.0,,,5169.0,http://www.alfa.com/en/GP100W.pgm?DSSTK=A12863,79.0,4-fluorophenyl methyl sulfone,CS(=O)(=O)c1ccc(cc1)F,Alfa Aesar
19514,10813.0,,,19515.0,http://www.srcinc.com/what-we-do/product.aspx?id=133,65.0,"1,8-dimethylnaphthalene",Cc1cccc2cccc(C)c12,PHYSPROP
1369,455502.0,,,1370.0,http://www.alfa.com/en/GP100W.pgm?DSSTK=A14609,81.0,"2,4,6-trichlorobenzonitrile",c1c(cc(c(c1Cl)C#N)Cl)Cl,Alfa Aesar
23139,60959.0,,,23140.0,http://www.srcinc.com/what-we-do/product.aspx?id=133,134.0,perfluoroadipic acid,FC(F)(C(F)(F)C(=O)O)C(F)(F)C(F)(F)C(=O)O,PHYSPROP
11818,2030324.0,,,11819.0,http://dx.doi.org/10.1021/ci0500132,247.0,"1,2,3,4-tetrachloro-6-(dibromomethyl)-5-nitroanthracene-9,10-dione",BrC(Br)c1ccc2C(=O)c3c(Cl)c(Cl)c(Cl)c(Cl)c3C(=O)c2c1[N+](=O)[O-],Karthikeyan M.; Glen R.C.; Bender A. General melting point prediction based on a diverse compound dataset and artificial neural networks. J. Chem. Inf. Model.; 2005; 45(3); 581-3401
7644,13858096.0,,,7645.0,http://www.alfa.com/en/GP100W.pgm?DSSTK=A15681,24.0,methyl anthranilate,COC(=O)c1ccccc1N,Alfa Aesar
18807,12761.0,,,18808.0,http://www.srcinc.com/what-we-do/product.aspx?id=133,195.0,sulfazamet,Nc1ccc(cc1)S(=O)(=O)Nc3cc(C)nn3c2ccccc2,PHYSPROP
24191,73892.0,,,24192.0,http://www.srcinc.com/what-we-do/product.aspx?id=133,9.5,"1,4-bis-dichloromethyl-benzene",ClC(Cl)c1ccc(cc1)C(Cl)Cl,PHYSPROP
2024,283242.0,,,2025.0,http://www.alfa.com/en/GP100W.pgm?DSSTK=A18383,184.0,2-amino-6-fluorobenzothiazole,c1cc2c(cc1F)sc(n2)N,Alfa Aesar
3207,129206.0,,,3208.0,http://www.alfa.com/en/GP100W.pgm?DSSTK=L09344,82.0,"3,3'-diaminodiphenylmethane",c1cc(cc(c1)N)Cc2cccc(c2)N,Alfa Aesar
20709,7199.0,,,20710.0,http://www.srcinc.com/what-we-do/product.aspx?id=133,74.5,"p-formyl-n,n-dimethylaniline",CN(C)c1ccc(C=O)cc1,PHYSPROP
10664,2034708.0,,,10665.0,http://dx.doi.org/10.1021/ci0500132,205.0,"6-amino-4-(4-methylphenyl)-1-phenyl-3-(trifluoromethyl)-1,4-dihydropyrano[2,3-c]pyrazole-5-carbonitrile",FC(F)(F)c1[nH0][nH0](c2OC(N)=C(C#N)C(c21)c1ccc(C)cc1)c1ccccc1,Karthikeyan M.; Glen R.C.; Bender A. General melting point prediction based on a diverse compound dataset and artificial neural networks. J. Chem. Inf. Model.; 2005; 45(3); 581-2247
17281,4447447.0,,,17282.0,http://dx.doi.org/10.1021/ci700307p,157.5,codeine,COc1ccc2C[C@H]4N(C)CC[C@@]35[C@@H](Oc1c23)[C@@H](O)C=C[C@@H]45,Hughes LD; Palmer DS; Nigsch F and Mitchell JBO. 2008 Why are some properties more difficult to predict than others? A study of QSPR models of solubility; melting point and LogP. J. Chem. Inf. Model. 2008. 48 (1). pp 220?429
11730,2030577.0,,,11731.0,http://dx.doi.org/10.1021/ci0500132,157.0,"2-{(E)-[2-methyl-7-(3-oxobutyl)-1,2,3,4-tetrahydroquinolin-6-yl]diazenyl}benzoic acid",O=C(C)CCc1cc2NC(C)CCc2cc1N=Nc1ccccc1C(=O)O,Karthikeyan M.; Glen R.C.; Bender A. General melting point prediction based on a diverse compound dataset and artificial neural networks. J. Chem. Inf. Model.; 2005; 45(3); 581-3313
21213,6248.0,,,21214.0,http://www.srcinc.com/what-we-do/product.aspx?id=133,-23.6,3-methyl-3-pentanol,CC(O)(CC)CC,PHYSPROP
7397,66481.0,,,7398.0,http://www.alfa.com/en/GP100W.pgm?DSSTK=L04385,-65.0,isovaleric anhydride,CC(C)CC(=O)OC(=O)CC(C)C,Alfa Aesar
23075,60273.0,,,23076.0,http://www.srcinc.com/what-we-do/product.aspx?id=133,45.5,"benzene, 1,4-dibutoxy-",CCCCOc1ccc(OCCCC)cc1,PHYSPROP
11763,2030470.0,,,11764.0,http://dx.doi.org/10.1021/ci0500132,139.0,"3-[(4-bromophenyl)hydrazono]-1,4-diphenylbutan-2-ol",Brc1ccc(NN=C(Cc2ccccc2)C(O)Cc2ccccc2)cc1,Karthikeyan M.; Glen R.C.; Bender A. General melting point prediction based on a diverse compound dataset and artificial neural networks. J. Chem. Inf. Model.; 2005; 45(3); 581-3346
1755,73131.0,,,1756.0,http://www.alfa.com/en/GP100W.pgm?DSSTK=B21354,160.0,"2,6-dichlorophenylacetic acid",c1cc(c(c(c1)Cl)CC(=O)O)Cl,Alfa Aesar
6686,9357.0,,,6687.0,http://www.alfa.com/en/GP100W.pgm?DSSTK=A11045,67.0,cyanoacetic acid,C(C#N)C(=O)O,Alfa Aesar
13971,67793.0,,,13972.0,http://www.amazon.com/dp/B002IYRJWI,-25.0,1-undecyne,C#CCCCCCCCCC,American Petroleum Institute. Research Project 44; Selected Values of Properties of Hydrocarbons and Related Compounds. Texas A & M University; College Station; TX; 1973.
23201,61400.0,,,23202.0,http://www.srcinc.com/what-we-do/product.aspx?id=133,116.0,"phenol, 2,3,5,6-tetrachloro-4-methoxy-",Oc1c(Cl)c(Cl)c(OC)c(Cl)c1Cl,PHYSPROP
23993,69797.0,,,23994.0,http://www.srcinc.com/what-we-do/product.aspx?id=133,-11.0,"silanetriamine,n,n,n',n',n'',n'',1-heptamethyl-",CN(C)[Si](C)(N(C)C)N(C)C,PHYSPROP
849,200616.0,,,850.0,http://www.alfa.com/en/GP100W.pgm?DSSTK=B22038,48.0,1-(1-propynyl)cyclohexanol,CC#CC1(CCCCC1)O,Alfa Aesar
16813,34933.0,,,16814.0,http://www.drugbank.ca/drugs/DB01333,140.0,Cefradine,CC=3CS[C@H]2N(C(=O)[C@H]2NC(=O)[C@H](N)C1=CCC=CC1)C=3C(=O)O,DrugBank
26863,21108576.0,,,26864.0,http://www.srcinc.com/what-we-do/product.aspx?id=133,106.0,4-aminoacetophenone,O=C(C)c1ccc(N)cc1,PHYSPROP
14057,13863636.0,,,14058.0,http://www.amazon.com/dp/B003XEQTLE,-50.0,diethyl_malonate,O=C(CC(=O)OCC)OCC,Aldrich Chemical Company; Aldrich Catalog-Handbook of Fine Chemicals; Milwaukee; WI; 1984.
28245,864.0,,,28246.0,http://tinyurl.com/ybmv4vj,-98.0,methanol,CO,Sigma-Aldrich
27162,4584644.0,,,27163.0,http://scripts.iucr.org/cgi-bin/paper?xu2159,119.35,"(2E)-1-(2-Naphthyl)-3-(3,4,5-trimethoxyphenyl)prop-2-en-1-one",O=C(c2cc1ccccc1cc2)C=Cc3cc(OC)c(OC)c(OC)c3,IUCr
22233,1664.0,,,22234.0,http://www.srcinc.com/what-we-do/product.aspx?id=133,158.5,4-aminopyridine,Nc1ccncc1,PHYSPROP
10177,2885785.0,,,10178.0,http://dx.doi.org/10.1021/ci0500132,145.0,3-[(4-chlorophenoxy)methoxy]cholest-5-ene,Clc1ccc(OCOC2CCC3(C)C(=CCC4C5CCC(C(C)CCCC(C)C)C5(C)CCC43)C2)cc1,Karthikeyan M.; Glen R.C.; Bender A. General melting point prediction based on a diverse compound dataset and artificial neural networks. J. Chem. Inf. Model.; 2005; 45(3); 581-1760
18069,17159.0,,,18070.0,http://www.srcinc.com/what-we-do/product.aspx?id=133,164.0,dis. a. 15,CN(C)c2ccc(/N=N/c1ccccc1[N+]([O-])=O)cc2,PHYSPROP
16150,2005981.0,,,16151.0,http://msds.chem.ox.ac.uk/,175.5,Thiourea,NC(N)=S,academic website
26702,16739170.0,,,26703.0,http://www.srcinc.com/what-we-do/product.aspx?id=133,172.5,hematoporphyrin,O=C(O)CCc2c(C)c1cc5nc(cc4nc(cc3nc(cc2n1)C(CCC(=O)O)=C3C)c(C)c4C(C)O)C(C)=C5C(C)O,PHYSPROP
3830,11009.0,,,3831.0,http://www.alfa.com/en/GP100W.pgm?DSSTK=A14921,77.0,3'-chloroacetanilide,CC(=O)Nc1cccc(c1)Cl,Alfa Aesar
22120,2353.0,,,22121.0,http://www.srcinc.com/what-we-do/product.aspx?id=133,154.0,a-bromo-i-valerylurea,CC(C)C(Br)C(=O)NC(N)=O,PHYSPROP
27372,4445524.0,,,27373.0,http://pubs.acs.org/doi/abs/10.1021/ja01369a057,183.5,(2E)-3-(4-Hydroxyphenyl)-1-phenyl-2-propen-1-one,OC1=CC=C(C=C1)\C=C\C(=O)C2=CC=CC=C2,Journal of the American Chemical Society
16933,4742.0,,,16934.0,http://www.drugbank.ca/drugs/DB01032,195.0,Probenecid,O=S(=O)(N(CCC)CCC)c1ccc(cc1)C(=O)O,DrugBank
27960,62903.0,,,27961.0,http://chemspider.com/62903,16.0,cyclohexanepropionic acid,O=C(O)CCC1CCCCC1,EPISuite-ChemSpider
26770,21106129.0,,,26771.0,http://www.srcinc.com/what-we-do/product.aspx?id=133,-10.0,2-methoxy-4-(1-propenyl)phenol,Oc1ccc(cc1OC)C=CC,PHYSPROP
17616,24634.0,,,17617.0,http://www.srcinc.com/what-we-do/product.aspx?id=133,-74.4,"cyclohexene, 4,4-dimethyl-",CC1(C)CC=CCC1,PHYSPROP
24478,84973.0,,,24479.0,http://www.srcinc.com/what-we-do/product.aspx?id=133,46.3,"2h-1-benzopyran, 3,4-dihydro-2-phenyl-",c1ccc2OC(CCc2c1)c3ccccc3,PHYSPROP
128,2040757.0,,,129.0,http://www.alfa.com/en/GP100W.pgm?DSSTK=H26924,58.0,1-methyl-3-phenylpiperazine,CN1CCNC(C1)c2ccccc2,Alfa Aesar
28119,3277.0,,,28120.0,http://www.aapspharmscitech.org/view.asp?art=pt070126,111.0,flurbiprofen,Fc2cc(ccc2c1ccccc1)C(C(=O)O)C,Sepassi K; Yalkowsky SH; AAPS PharmSciTech; 7(1); E1-E8 (2006)
15899,13858096.0,,,15900.0,http://msds.chem.ox.ac.uk/,24.0,Methyl 2-aminobenzoate,Nc1ccccc1C(=O)OC,academic website
16627,3827.0,,,16628.0,http://www.drugbank.ca/drugs/DB00408,109.5,Loxapine,CN1CCN(CC1)C3=Nc4ccccc4Oc2ccc(Cl)cc23,DrugBank
19152,11629.0,,,19153.0,http://www.srcinc.com/what-we-do/product.aspx?id=133,114.0,isovanillin,Oc1cc(ccc1OC)C=O,PHYSPROP
16865,12744.0,,,16866.0,http://www.drugbank.ca/drugs/DB01541,165.0,Boldenone,O=C3C=C4CC[C@@H]2[C@H](CC[C@@]1(C)[C@H]2CC[C@@H]1O)[C@@]4(C)C=C3,DrugBank
4847,60757.0,,,4848.0,http://www.alfa.com/en/GP100W.pgm?DSSTK=A17780,201.0,"4-chloro-2,6-diaminopyrimidine",c1c(nc(nc1Cl)N)N,Alfa Aesar
26967,21171393.0,,,26968.0,http://www.srcinc.com/what-we-do/product.aspx?id=133,19.0,4-tert-butyl-1-bromobenzene,CC(C)(C)c1ccc(Br)cc1,PHYSPROP
14622,26989.0,,,14623.0,http://de.wikipedia.org/wiki/Beilsteins_Handbuch_der_Organischen_Chemie,73.0,p-iodobenzyl_alcohol,OCc1ccc(I)cc1,Beilstein F. K.; Beilsteins Handbuch der Organischen Chemie. Springer; Berlin; 1972.
5939,14994356.0,,,5940.0,http://www.alfa.com/en/GP100W.pgm?DSSTK=B25557,86.0,5-iodo-2-methoxyaniline,COc1ccc(cc1N)I,Alfa Aesar
3157,2499643.0,,,3158.0,http://www.alfa.com/en/GP100W.pgm?DSSTK=H26615,137.0,3-(ethoxycarbonyl)benzeneboronic acid,B(c1cccc(c1)C(=O)OCC)(O)O,Alfa Aesar
21531,5143.0,,,21532.0,http://www.srcinc.com/what-we-do/product.aspx?id=133,240.0,sulfanitran,O=S(=O)(Nc1ccc(cc1)[N+]([O-])=O)c2ccc(NC(C)=O)cc2,PHYSPROP
14815,24499.0,,,14816.0,http://msds.chem.ox.ac.uk/,10.0,(3-Phenoxyphenyl)methanol,OCc2cc(Oc1ccccc1)ccc2,academic website
4759,13921727.0,,,4760.0,http://www.alfa.com/en/GP100W.pgm?DSSTK=H27252,222.0,4-bromo-3-chlorobenzoic acid,c1cc(c(cc1C(=O)O)Cl)Br,Alfa Aesar
2683,31016.0,,,2684.0,http://www.alfa.com/en/GP100W.pgm?DSSTK=B22405,-90.0,2-hexyne,CCCC#CC,Alfa Aesar
22680,38417.0,,,22681.0,http://www.srcinc.com/what-we-do/product.aspx?id=133,196.0,"2,3,4,7,8-pentachlorodibenzofuran",Clc1cc3c(cc1Cl)oc2c3cc(Cl)c(Cl)c2Cl,PHYSPROP
15886,844.0,,,15887.0,http://msds.chem.ox.ac.uk/,136.0,Malonic acid,O=C(O)CC(=O)O,academic website
747,75448.0,,,748.0,http://www.alfa.com/en/GP100W.pgm?DSSTK=A11789,126.0,"1,1-bis(methylthio)-2-nitroethylene",CSC(=C[N+](=O)[O-])SC,Alfa Aesar
2820,257521.0,,,2821.0,http://www.alfa.com/en/GP100W.pgm?DSSTK=H27391,179.0,2-methoxy-4-nitrobenzonitrile,COc1cc(ccc1C#N)[N+](=O)[O-],Alfa Aesar
22993,59561.0,,,22994.0,http://www.srcinc.com/what-we-do/product.aspx?id=133,137.0,2-amino-5-chloropyridine,Clc1cnc(N)cc1,PHYSPROP
15336,25973.0,,,15337.0,http://msds.chem.ox.ac.uk/,47.0,3-(1-Nitrosopyrrolidin-2-yl)pyridine,O=NN2CCCC2c1cnccc1,academic website
11357,2031911.0,,,11358.0,http://dx.doi.org/10.1021/ci0500132,76.0,"ethyl (3-hydroxy-4,7,7-trimethylbicyclo[2.2.1]hept-2-yl)carbamate",O=C(OCC)NC1C(O)C2(C)CCC1C2(C)C,Karthikeyan M.; Glen R.C.; Bender A. General melting point prediction based on a diverse compound dataset and artificial neural networks. J. Chem. Inf. Model.; 2005; 45(3); 581-2940
22629,36329.0,,,22630.0,http://www.srcinc.com/what-we-do/product.aspx?id=133,194.0,"1,3,7,8-tetrachlorodibenzo-p-dioxin",Clc1cc2Oc3cc(Cl)cc(Cl)c3Oc2cc1Cl,PHYSPROP
7689,7889.0,,,7690.0,http://www.alfa.com/en/GP100W.pgm?DSSTK=L05509,31.0,methyl palmitate,CCCCCCCCCCCCCCCC(=O)OC,Alfa Aesar
19729,10095.0,,,19730.0,http://www.srcinc.com/what-we-do/product.aspx?id=133,67.0,"butanamide, 2-bromo-2-ethyl-",BrC(CC)(CC)C(N)=O,PHYSPROP
6261,1847.0,,,6262.0,http://www.alfa.com/en/GP100W.pgm?DSSTK=A14720,74.0,8-hydroxyquinoline,c1cc2cccnc2c(c1)O,Alfa Aesar
3572,12275.0,,,3573.0,http://www.alfa.com/en/GP100W.pgm?DSSTK=A16221,189.0,3-acetylindole,CC(=O)c1c[nH]c2c1cccc2,Alfa Aesar
12768,67616.0,,,12769.0,http://dx.doi.org/10.1021/ci0500132,167.0,"2,3,4-trihydroxybenzaldehyde",O=Cc1ccc(O)c(O)c1O,Karthikeyan M.; Glen R.C.; Bender A. General melting point prediction based on a diverse compound dataset and artificial neural networks. J. Chem. Inf. Model.; 2005; 45(3); 581-4351
15318,387.0,,,15319.0,http://msds.chem.ox.ac.uk/,-93.0,2-Nitropropane,CC(C)[N+]([O-])=O,academic website
20048,8855.0,,,20049.0,http://www.srcinc.com/what-we-do/product.aspx?id=133,48.0,quinazoline,c1cccc2ncncc12,PHYSPROP
4052,69135.0,,,4053.0,http://www.alfa.com/en/GP100W.pgm?DSSTK=H27516,63.0,3-methoxy-5-methylphenol,Cc1cc(cc(c1)OC)O,Alfa Aesar
8265,71964.0,,,8266.0,http://www.alfa.com/en/GP100W.pgm?DSSTK=A14794,69.0,phenyl vinyl sulfone,C=CS(=O)(=O)c1ccccc1,Alfa Aesar
27567,25605.0,,,27568.0,http://dx.doi.org/10.1016/j.chemosphere.2013.10.095,78.0,"2,4,5-Trichlorobiphenyl",C1=CC=C(C=C1)C2=CC(=C(C=C2Cl)Cl)Cl,Abraham M.H. and Acree Jr. W.E. The solubility of liquid and solid compounds in dry octan-1-ol. Chemosphere (2013)
28379,33282.0,,,28380.0,http://dx.doi.org/10.1016/j.chemosphere.2013.10.095,117.0,PCB-105,C1=CC(=C(C=C1C2=C(C(=C(C=C2)Cl)Cl)Cl)Cl)Cl,Abraham M.H. and Acree Jr. W.E. The solubility of liquid and solid compounds in dry octan-1-ol. Chemosphere (2013)
19654,10356.0,,,19655.0,http://www.srcinc.com/what-we-do/product.aspx?id=133,87.0,2-chloro-4-methyl-6-(dimethylamino)pyrimidine,Cc1cc(nc(Cl)n1)N(C)C,PHYSPROP
21585,4819.0,,,21586.0,http://www.srcinc.com/what-we-do/product.aspx?id=133,233.5,pyrimethamine,CCc1nc(N)nc(N)c1c2ccc(Cl)cc2,PHYSPROP
24492,85326.0,,,24493.0,http://www.srcinc.com/what-we-do/product.aspx?id=133,118.0,"1-chloro-3,5-dihydroxybenzene",Oc1cc(Cl)cc(O)c1,PHYSPROP
5779,68889.0,,,5780.0,http://www.alfa.com/en/GP100W.pgm?DSSTK=43367,166.0,"5-bromo-4-chloroindoxyl 1,3-diacetate",CC(=O)n1cc(c2c1ccc(c2Cl)Br)OC(=O)C,Alfa Aesar
21481,5303.0,,,21482.0,http://www.srcinc.com/what-we-do/product.aspx?id=133,174.0,"1h-imidazole, 4,5-dihydro-2-(phenylmethyl)-",c2cc(CC1=NCCN1)ccc2,PHYSPROP
7726,6159.0,,,7727.0,http://www.alfa.com/en/GP100W.pgm?DSSTK=B23107,-78.0,methyltrichlorosilane,C[Si](Cl)(Cl)Cl,Alfa Aesar
4142,11582.0,,,4143.0,http://www.alfa.com/en/GP100W.pgm?DSSTK=A15821,116.0,3-nitrobenzonitrile,c1cc(cc(c1)[N+](=O)[O-])C#N,Alfa Aesar
16886,2085.0,,,16887.0,http://www.drugbank.ca/drugs/DB00543,175.5,Amoxapine,Clc1ccc2Oc4ccccc4N=C(c2c1)N3CCNCC3,DrugBank
12401,533608.0,,,12402.0,http://dx.doi.org/10.1021/ci0500132,54.0,"N,N-Dimethyl-bis(trifluoromethyl)acetamide",FC(F)(F)C(C(=O)N(C)C)C(F)(F)F,Karthikeyan M.; Glen R.C.; Bender A. General melting point prediction based on a diverse compound dataset and artificial neural networks. J. Chem. Inf. Model.; 2005; 45(3); 581-3984
18526,14403.0,,,18527.0,http://www.srcinc.com/what-we-do/product.aspx?id=133,138.0,"2-benzothiazolamine, 4-methyl-",Cc1cccc2SC(=N)Nc12,PHYSPROP
20790,7046.0,,,20791.0,http://www.srcinc.com/what-we-do/product.aspx?id=133,120.0,"benzoic acid, 2-hydroxy-5-sulfo-",Oc1ccc(cc1C(=O)O)S(O)(=O)=O,PHYSPROP
4790,13881571.0,,,4791.0,http://www.alfa.com/en/GP100W.pgm?DSSTK=A11824,11.0,4-bromoanisole,COc1ccc(cc1)Br,Alfa Aesar
17939,18829.0,,,17940.0,http://www.srcinc.com/what-we-do/product.aspx?id=133,145.0,5-benzoyl-4-hydroxy-2-methoxy-benzenesulfonic ac,OS(=O)(=O)c1cc(c(O)cc1OC)C(=O)c2ccccc2,PHYSPROP
7084,71468.0,,,7085.0,http://www.alfa.com/en/GP100W.pgm?DSSTK=A11097,30.0,ethyl 3-ethoxy-2-butenoate,CCOC(=CC(=O)OCC)C,Alfa Aesar
15151,8988.0,,,15152.0,http://msds.chem.ox.ac.uk/,197.0,"2,3-Disulfanylsuccinic acid",O=C(O)C(S)C(S)C(O)=O,academic website
11772,2030459.0,,,11773.0,http://dx.doi.org/10.1021/ci0500132,99.0,(E)-1-phenyl-2-[2-(2-phenylhydrazino)phenyl]diazene,N(=Nc1ccccc1NNc1ccccc1)c1ccccc1,Karthikeyan M.; Glen R.C.; Bender A. General melting point prediction based on a diverse compound dataset and artificial neural networks. J. Chem. Inf. Model.; 2005; 45(3); 581-3355
22489,220.0,,,22490.0,http://www.srcinc.com/what-we-do/product.aspx?id=133,178.0,epiandrosterone,O=C2CCC1C3CCC4CC(O)CCC4(C)C3CCC12C,PHYSPROP
1629,511968.0,,,1630.0,http://www.alfa.com/en/GP100W.pgm?DSSTK=B21259,75.0,"2,5-difluorophenylhydrazine",c1cc(c(cc1F)NN)F,Alfa Aesar
6300,12524.0,,,6301.0,http://www.alfa.com/en/GP100W.pgm?DSSTK=A15699,80.0,9-methylanthracene,Cc1c2ccccc2cc3c1cccc3,Alfa Aesar
26936,21168786.0,,,26937.0,http://www.srcinc.com/what-we-do/product.aspx?id=133,14.0,"benzaldehyde, 2,4,6-trimethyl-",Cc1cc(C)cc(C)c1C=O,PHYSPROP
23352,62355.0,,,23353.0,http://www.srcinc.com/what-we-do/product.aspx?id=133,-20.0,8-chloroquinoline,Clc1cccc2cccnc12,PHYSPROP
777,123597.0,,,778.0,http://www.alfa.com/en/GP100W.pgm?DSSTK=A11599,89.0,1-(phenylsulfonyl)pyrrole,c1ccc(cc1)S(=O)(=O)n2cccc2,Alfa Aesar
23034,60013.0,,,23035.0,http://www.srcinc.com/what-we-do/product.aspx?id=133,232.0,2-amino-4-chlorobenzoic acid,OC(=O)c1ccc(Cl)cc1N,PHYSPROP