,csid,donotuse,donotusebecause,key,link,mpC,name,smiles,source
15681,11995.0,,,15682.0,http://msds.chem.ox.ac.uk/,78.0,"Cyclohexane-1,4-dione",O=C1CCC(=O)CC1,academic website
5474,8188.0,,,5475.0,http://www.alfa.com/en/GP100W.pgm?DSSTK=A12543,73.0,4-nitrobenzoyl chloride,c1cc(ccc1C(=O)Cl)[N+](=O)[O-],Alfa Aesar
8055,68130.0,,,8056.0,http://www.alfa.com/en/GP100W.pgm?DSSTK=H31053,149.0,N-formylglycine,C(C(=O)O)NC=O,Alfa Aesar
3454,2018562.0,,,3455.0,http://www.alfa.com/en/GP100W.pgm?DSSTK=A19904,156.0,"3,5-difluorobenzamide",c1c(cc(cc1F)F)C(=O)N,Alfa Aesar
6590,2007108.0,,,6591.0,http://www.alfa.com/en/GP100W.pgm?DSSTK=L20155,77.0,burgess reagent,CC[N+](CC)(CC)S(=O)(=O)[N-]C(=O)OC,Alfa Aesar
22652,37117.0,,,22653.0,http://www.srcinc.com/what-we-do/product.aspx?id=133,189.0,trolox c,O=C(O)C1(C)CCc2c(O1)c(C)c(C)c(O)c2C,PHYSPROP
22594,35063.0,,,22595.0,http://www.srcinc.com/what-we-do/product.aspx?id=133,195.0,"1,2,3,4,7-pentachlorodibenzo-p-dioxin",Clc1ccc2Oc3c(Cl)c(Cl)c(Cl)c(Cl)c3Oc2c1,PHYSPROP
15468,13838151.0,,,15469.0,http://msds.chem.ox.ac.uk/,-50.0,4-Hydroxy-4-methylpentan-2-one,CC(=O)CC(C)(C)O,academic website
2552,6862.0,,,2553.0,http://www.alfa.com/en/GP100W.pgm?DSSTK=B23327,36.0,2-ethoxynaphthalene,CCOc1ccc2ccccc2c1,Alfa Aesar
8854,3944.0,,,8855.0,http://dx.doi.org/10.1021/ci020280x,100.0,metaproterenol,CC(C)NCC(O)c1cc(O)cc(O)c1,Bergstrom C. A. S.; Norinder U.; Luthman K.; Artursson P. Molecular Descriptors Influencing Melting Point and Their Role in Classification of Solid Drugs. J. Chem. Inf. Comput. Sci.; (Article); 2003; 43(4); 1177-1301
4554,307340.0,,,4555.0,http://www.alfa.com/en/GP100W.pgm?DSSTK=L20007,98.0,4-amino-2-bromopyridine,c1cnc(cc1N)Br,Alfa Aesar
13069,2355.0,,,13070.0,http://dx.doi.org/10.1021/ci0500132,128.0,"7-Phenyl-7-(2,4,5-trimethyl-3,6-dioxocyclohexa-1,4-dien-1-yl)heptanoic acid",O=C1C(C)=C(C)C(=O)C(=C1C)C(CCCCCC(=O)O)c1ccccc1,Karthikeyan M.; Glen R.C.; Bender A. General melting point prediction based on a diverse compound dataset and artificial neural networks. J. Chem. Inf. Model.; 2005; 45(3); 581-4652
443,60919.0,,,444.0,http://www.alfa.com/en/GP100W.pgm?DSSTK=B21615,74.0,"1,5-difluoro-2,4-dinitrobenzene",c1c(c(cc(c1[N+](=O)[O-])F)F)[N+](=O)[O-],Alfa Aesar
13380,55090.0,,,13381.0,http://www.questia.com/library/book/physical_properties_of_chemical_compounds_by_robert_rickert_dreisbach.jsp,-74.0,2-chloro-2-methylbutane,CC(C)(Cl)CC,Dreisbach R. R. Physical Properties of Chemical Compounds; Vol. III; American Chemical Society; Washington; 1961.
1393,21111773.0,,,1394.0,http://www.alfa.com/en/GP100W.pgm?DSSTK=A13049,-5.0,"2,4,6-trimethylaniline",Cc1cc(c(c(c1)C)N)C,Alfa Aesar
19789,9910.0,,,19790.0,http://www.srcinc.com/what-we-do/product.aspx?id=133,29.0,"1,2-benzenedithiol, 4-methyl-",Cc1cc(S)c(S)cc1,PHYSPROP
19345,11246.0,,,19346.0,http://www.srcinc.com/what-we-do/product.aspx?id=133,-17.5,methyl trichloroacetate,ClC(Cl)(Cl)C(=O)OC,PHYSPROP
12977,6933.0,,,12978.0,http://dx.doi.org/10.1021/ci0500132,53.0,N-(2-Methylphenyl)formamide,O=CNc1ccccc1C,Karthikeyan M.; Glen R.C.; Bender A. General melting point prediction based on a diverse compound dataset and artificial neural networks. J. Chem. Inf. Model.; 2005; 45(3); 581-4560
17360,31828.0,,,17361.0,http://www.srcinc.com/what-we-do/product.aspx?id=133,163.0,"2,3-dichlorodibenzo-p-dioxin",Clc1cc2Oc3ccccc3Oc2cc1Cl,PHYSPROP
9578,4645675.0,x,metal and mixture - AL,9579.0,http://dx.doi.org/10.1021/ci0500132,251.0,N-benzyl-N-[(1Z)-pyridin-2-ylmethylidene]amine oxide - dibromozinc (1:1),Br[Zn]Br.[O-][N+](=Cc1[nH0]cccc1)Cc1ccccc1,Karthikeyan M.; Glen R.C.; Bender A. General melting point prediction based on a diverse compound dataset and artificial neural networks. J. Chem. Inf. Model.; 2005; 45(3); 581-1161
21000,6671.0,,,21001.0,http://www.srcinc.com/what-we-do/product.aspx?id=133,46.5,"phenol, 2-(1,1-dimethylethyl)-5-methyl-",CC(C)(C)c1ccc(C)cc1O,PHYSPROP
26534,13852893.0,,,26535.0,http://www.srcinc.com/what-we-do/product.aspx?id=133,-103.5,chloromethoxymethane,COCCl,PHYSPROP
8614,24398.0,,,8615.0,http://www.alfa.com/en/GP100W.pgm?DSSTK=30387,156.0,tricyclohexylphosphine oxide,C1CCC(CC1)P(=O)(C2CCCCC2)C3CCCCC3,Alfa Aesar
25361,644222.0,,,25362.0,http://www.srcinc.com/what-we-do/product.aspx?id=133,263.0,"2-propenoic acid, 3-(4-bromophenyl)-",Brc1ccc(/C=C/C(=O)O)cc1,PHYSPROP
4855,2007023.0,,,4856.0,http://www.alfa.com/en/GP100W.pgm?DSSTK=A16110,59.0,4-chloro-2-fluorobenzaldehyde,c1cc(c(cc1Cl)F)C=O,Alfa Aesar
27486,10308524.0,,,27487.0,http://zhengbang.en.alibaba.com/product/251677818-202757079/16_17_Epoxy_progesterone_W_oxide.html,205.5,11a-hydroxy-16a;17a-epoxyprogesterone,CC(=O)[C@@]53O[C@@H]5C[C@H]2[C@@H]4CC\C1=C\C(=O)CC[C@]1(C)[C@H]4[C@H](O)C[C@@]23C,Shaanxi Zhengbang International Trade Co
2030,21284.0,,,2031.0,http://www.alfa.com/en/GP100W.pgm?DSSTK=B24738,248.0,2-amino-6-nitrobenzothiazole,c1cc2c(cc1[N+](=O)[O-])sc(n2)N,Alfa Aesar
1357,21106174.0,,,1358.0,http://www.alfa.com/en/GP100W.pgm?DSSTK=A11058,-43.0,"2,4,6-collidine",Cc1cc(nc(c1)C)C,Alfa Aesar
18585,13888.0,,,18586.0,http://www.srcinc.com/what-we-do/product.aspx?id=133,90.5,n-2-pyridinyl-2-pyridinamine,n1ccccc1Nc2ccccn2,PHYSPROP
13955,13858096.0,,,13956.0,http://www.amazon.com/dp/B003XEQTLE,24.0,methyl_anthranilate,Nc1ccccc1C(=O)OC,Aldrich Chemical Company; Aldrich Catalog-Handbook of Fine Chemicals; Milwaukee; WI; 1984.
6196,8867.0,,,6197.0,http://www.alfa.com/en/GP100W.pgm?DSSTK=L07983,105.0,7-azaindole,c1cc2cc[nH]c2nc1,Alfa Aesar
6430,2049922.0,,,6431.0,http://www.alfa.com/en/GP100W.pgm?DSSTK=L19550,39.0,benzo[b]furan-3-acetonitrile,c1ccc2c(c1)c(co2)CC#N,Alfa Aesar
14060,21106517.0,,,14061.0,http://www.questia.com/library/book/physical_properties_of_chemical_compounds_by_robert_rickert_dreisbach.jsp,-15.0,"3,4-dichlorotoluene",Cc1cc(Cl)c(Cl)cc1,Dreisbach R. R. Physical Properties of Chemical Compounds; Vol. I; American Chemical Society; Washington; 1955.
23561,63342.0,,,23562.0,http://www.srcinc.com/what-we-do/product.aspx?id=133,71.5,1-methyl-4-nitronaphthalene,[O-][N+](=O)c2ccc(C)c1ccccc12,PHYSPROP
14922,13836589.0,,,14923.0,http://msds.chem.ox.ac.uk/,-58.0,"1,2-Dimethoxyethane",COCCOC,academic website
19225,11488.0,,,19226.0,http://www.srcinc.com/what-we-do/product.aspx?id=133,59.0,"2h-inden-2-one, 1,3-dihydro-",O=C1Cc2ccccc2C1,PHYSPROP
26143,10441768.0,,,26144.0,http://www.srcinc.com/what-we-do/product.aspx?id=133,76.5,"benzoic acid, 2-(acetyloxy)-, 2-(diethylamino)-2",O=C(C)Oc1ccccc1C(=O)OCC(=O)N(CC)CC,PHYSPROP
28050,11003.0,,,28051.0,http://dx.doi.org/10.1080/10629360701430124,53.5,diphenylamine,c1ccc(cc1)Nc2ccccc2,RAEVSKY OA; PERLOVICH GL and SCHAPER K-J. Physicochemical properties/descriptors governing the solubility and partitioning of chemicals in water-solvent-gas systems. Part 2. Solubility in 1-octanol. SAR and QSAR in Environmental Research Vol. 18 Nos. 5–6 July–September 2007 543–578
26612,13869480.0,,,26613.0,http://www.srcinc.com/what-we-do/product.aspx?id=133,-1.0,m-methoxyaniline,Nc1cccc(OC)c1,PHYSPROP
13233,11910.0,,,13234.0,http://www.amazon.com/dp/B002IYRJWI,6.0,"2,2-dimethylpropanal",CC(C)(C)C=O,American Petroleum Institute. Research Project 44; Selected Values of Properties of Hydrocarbons and Related Compounds. Texas A & M University; College Station; TX; 1973.
22918,56892.0,,,22919.0,http://www.srcinc.com/what-we-do/product.aspx?id=133,136.0,moquizone,O=C(CN1CCOCC1)N4CN(c2ccccc2)C(=O)c3ccccc34,PHYSPROP
17642,23987.0,,,17643.0,http://www.srcinc.com/what-we-do/product.aspx?id=133,31.5,"thietane, 1-oxide",O=S1CCC1,PHYSPROP
5782,713442.0,,,5783.0,http://www.alfa.com/en/GP100W.pgm?DSSTK=L14923,213.0,5-bromo-7-nitroindole,c1c[nH]c2c1cc(cc2[N+](=O)[O-])Br,Alfa Aesar
13993,6781.0,,,13994.0,http://www.amazon.com/dp/B003XEQTLE,10.0,o-nitroanisole,COc1ccccc1[N+]([O-])=O,Aldrich Chemical Company; Aldrich Catalog-Handbook of Fine Chemicals; Milwaukee; WI; 1984.
14114,68857.0,,,14115.0,http://de.wikipedia.org/wiki/Beilsteins_Handbuch_der_Organischen_Chemie,332.0,terephthalamide,O=C(N)c1ccc(cc1)C(N)=O,Beilstein F. K.; Beilsteins Handbuch der Organischen Chemie. Springer; Berlin; 1972.
3430,68674.0,,,3431.0,http://www.alfa.com/en/GP100W.pgm?DSSTK=B24676,26.0,"3,5-dichlorobenzoyl chloride",c1c(cc(cc1Cl)Cl)C(=O)Cl,Alfa Aesar
21264,6161.0,,,21265.0,http://www.srcinc.com/what-we-do/product.aspx?id=133,-26.0,"ethane, 1,2-dibromo-1,1-dichloro-",BrC(Cl)(Cl)CBr,PHYSPROP
4204,214965.0,,,4205.0,http://www.alfa.com/en/GP100W.pgm?DSSTK=B21930,111.0,3-tert-butyl-1-phenyl-2-pyrazolin-5-one,CC(C)(C)C1=NN(C(=O)C1)c2ccccc2,Alfa Aesar
6574,10301338.0,,,6575.0,http://www.alfa.com/en/GP100W.pgm?DSSTK=A14403,47.0,bromoacetic acid,C(C(=O)O)Br,Alfa Aesar
8860,22342.0,,,8861.0,http://dx.doi.org/10.1021/ci020280x,180.0,molindone,CCc2c(C)[nH]c3CCC(CN1CCOCC1)C(=O)c23,Bergstrom C. A. S.; Norinder U.; Luthman K.; Artursson P. Molecular Descriptors Influencing Melting Point and Their Role in Classification of Solid Drugs. J. Chem. Inf. Comput. Sci.; (Article); 2003; 43(4); 1177-1307
12030,2029427.0,,,12031.0,http://dx.doi.org/10.1021/ci0500132,78.0,"4-(2,5-dimethylphenyl)-2,2-dimethylbutanoic acid",O=C(O)C(C)(C)CCc1cc(C)ccc1C,Karthikeyan M.; Glen R.C.; Bender A. General melting point prediction based on a diverse compound dataset and artificial neural networks. J. Chem. Inf. Model.; 2005; 45(3); 581-3613
18203,16119.0,,,18204.0,http://www.srcinc.com/what-we-do/product.aspx?id=133,58.0,"2,3,6-trimethylphenol",Cc1ccc(C)c(O)c1C,PHYSPROP
25960,10229769.0,,,25961.0,http://www.srcinc.com/what-we-do/product.aspx?id=133,57.0,"benzaldehyde, 2-hydroxy-, oxime",Oc1ccccc1C=NO,PHYSPROP
26658,13876539.0,,,26659.0,http://www.srcinc.com/what-we-do/product.aspx?id=133,33.5,phenylacetaldehyde,O=CCc1ccccc1,PHYSPROP
24267,77850.0,,,24268.0,http://www.srcinc.com/what-we-do/product.aspx?id=133,178.5,"1,2-dibenzoyl-1-tert-butylhydrazine",O=C(NN(C(=O)c1ccccc1)C(C)(C)C)c2ccccc2,PHYSPROP
12617,207806.0,,,12618.0,http://dx.doi.org/10.1021/ci0500132,149.0,"5-bromo-1-methyldihydropyrimidine-2,4(1H,3H)-dione",BrC1CN(C)C(=O)NC1=O,Karthikeyan M.; Glen R.C.; Bender A. General melting point prediction based on a diverse compound dataset and artificial neural networks. J. Chem. Inf. Model.; 2005; 45(3); 581-4200
24202,75095.0,,,24203.0,http://www.srcinc.com/what-we-do/product.aspx?id=133,194.5,p-methiobenzoic acid,CSc1ccc(cc1)C(=O)O,PHYSPROP
6416,7093.0,,,6417.0,http://www.alfa.com/en/GP100W.pgm?DSSTK=A16148,48.0,benzenesulfonic acid,c1ccc(cc1)S(=O)(=O)O,Alfa Aesar
6708,7788.0,,,6709.0,http://www.alfa.com/en/GP100W.pgm?DSSTK=A11359,-104.0,cyclohexene,C1CCC=CC1,Alfa Aesar
24163,73095.0,,,24164.0,http://www.srcinc.com/what-we-do/product.aspx?id=133,210.8,"9,10-anthracenedione, 2,3-dimethyl-",Cc2cc3C(=O)c1ccccc1C(=O)c3cc2C,PHYSPROP
24162,72986.0,,,24163.0,http://www.srcinc.com/what-we-do/product.aspx?id=133,195.0,"1,4-diam-2,3-dipho-9,10-anthracenedione",O=C2c1ccccc1C(=O)c5c2c(N)c(Oc3ccccc3)c(Oc4ccccc4)c5N,PHYSPROP
3768,2054124.0,,,3769.0,http://www.alfa.com/en/GP100W.pgm?DSSTK=H26725,36.0,3-chloro-2-fluorophenol,c1cc(c(c(c1)Cl)F)O,Alfa Aesar
10336,2036482.0,,,10337.0,http://dx.doi.org/10.1021/ci0500132,260.0,"2-(1H-pyrazol-4-yl)-1H-isoindole-1,3(2H)-dione",O=C1N(c2c[nH0][nH]c2)C(=O)c2ccccc21,Karthikeyan M.; Glen R.C.; Bender A. General melting point prediction based on a diverse compound dataset and artificial neural networks. J. Chem. Inf. Model.; 2005; 45(3); 581-1919
1469,14918.0,,,1470.0,http://www.alfa.com/en/GP100W.pgm?DSSTK=A13338,59.0,"2,4-dichlorobenzyl alcohol",c1cc(c(cc1Cl)Cl)CO,Alfa Aesar
20291,8047.0,,,20292.0,http://www.srcinc.com/what-we-do/product.aspx?id=133,265.0,cinchonine,O[C@H](C2CC1CCN2CC1C=C)c4ccnc3ccccc34,PHYSPROP
17095,880.0,,,17096.0,http://dx.doi.org/10.1021/ci700307p,114.0,acetanilide,O=C(C)Nc1ccccc1,Hughes LD; Palmer DS; Nigsch F and Mitchell JBO. 2008 Why are some properties more difficult to predict than others? A study of QSPR models of solubility; melting point and LogP. J. Chem. Inf. Model. 2008. 48 (1). pp 220?243
26431,13835293.0,,,26432.0,http://www.srcinc.com/what-we-do/product.aspx?id=133,130.0,"1,3-propanediol, 2,2-dimethyl-",CC(C)(CO)CO,PHYSPROP
7710,18693.0,,,7711.0,http://www.alfa.com/en/GP100W.pgm?DSSTK=B24209,64.0,methyl vanillate,COc1cc(ccc1O)C(=O)OC,Alfa Aesar
14899,13990.0,,,14900.0,http://msds.chem.ox.ac.uk/,150.0,"1,1-Diphenylguanidine",NC(=N)N(c1ccccc1)c2ccccc2,academic website
3907,2059481.0,,,3908.0,http://www.alfa.com/en/GP100W.pgm?DSSTK=H32846,47.0,3-fluoro-2-methylphenylacetonitrile,Cc1c(cccc1F)CC#N,Alfa Aesar
24858,190588.0,,,24859.0,http://www.srcinc.com/what-we-do/product.aspx?id=133,200.5,"spirostan-3-ol, (3.beta.,5.beta.,25s)-",CC6C2C(CC3C4CCC1CC(O)CCC1(C)C4CCC23C)OC56CCC(C)CO5,PHYSPROP
9531,4705594.0,,,9532.0,http://dx.doi.org/10.1021/ci0500132,152.0,(2E)-2-hydrazono-1-naphthalen-1-yl-2-phenylethanone,O=C(c1cccc2ccccc21)C(=NN)c1ccccc1,Karthikeyan M.; Glen R.C.; Bender A. General melting point prediction based on a diverse compound dataset and artificial neural networks. J. Chem. Inf. Model.; 2005; 45(3); 581-1114
24659,103099.0,,,24660.0,http://www.srcinc.com/what-we-do/product.aspx?id=133,136.0,thiacloprid,Clc2ncc(CN1CCS/C1=NC#N)cc2,PHYSPROP
1051,2057495.0,,,1052.0,http://www.alfa.com/en/GP100W.pgm?DSSTK=B21609,189.0,2-(trifluoromethoxy)benzenesulfonamide,c1ccc(c(c1)OC(F)(F)F)S(=O)(=O)N,Alfa Aesar
8109,11895.0,,,8110.0,http://www.alfa.com/en/GP100W.pgm?DSSTK=L05701,33.0,N-nonadecane,CCCCCCCCCCCCCCCCCCC,Alfa Aesar
14807,4483638.0,x,clearly out of range (7 NIST values) JCB,14808.0,http://msds.chem.ox.ac.uk/,-180.0,(2Z)-Pent-2-ene,CC=C/CC,academic website
6739,2041632.0,,,6740.0,http://www.alfa.com/en/GP100W.pgm?DSSTK=H26254,93.0,cyclopropylboronic acid,B(C1CC1)(O)O,Alfa Aesar
18165,16286.0,,,18166.0,http://www.srcinc.com/what-we-do/product.aspx?id=133,97.5,c.i. solvent yellow 56,CCN(CC)c1ccc(cc1)/N=N/c2ccccc2,PHYSPROP
1362,1438.0,,,1363.0,http://www.alfa.com/en/GP100W.pgm?DSSTK=A12424,89.0,"2,4,6-tribromophenol",c1c(cc(c(c1Br)O)Br)Br,Alfa Aesar
7201,11682.0,,,7202.0,http://www.alfa.com/en/GP100W.pgm?DSSTK=A15068,9.0,ethyl propiolate,CCOC(=O)C#C,Alfa Aesar
2658,61413.0,,,2659.0,http://www.alfa.com/en/GP100W.pgm?DSSTK=L04355,-20.0,2-fluorobenzotrichloride,c1ccc(c(c1)C(Cl)(Cl)Cl)F,Alfa Aesar
25863,5291880.0,,,25864.0,http://www.srcinc.com/what-we-do/product.aspx?id=133,59.5,clodinafop-propargyl,O=C(OCC#C)C(C)Oc1ccc(cc1)Oc2ncc(Cl)cc2F,PHYSPROP
6920,659.0,,,6921.0,http://www.alfa.com/en/GP100W.pgm?DSSTK=A13280,18.0,dimethyl sulfoxide,CS(=O)C,Alfa Aesar
16900,4925342.0,,,16901.0,http://www.drugbank.ca/drugs/DB00755,181.0,Tretinoin,CC=1CCCC(C)(C)C=1/C=C/C(/C)=CC=CC(/C)=CC(=O)O,DrugBank
18768,12997.0,,,18769.0,http://www.srcinc.com/what-we-do/product.aspx?id=133,-135.0,"oxirane, ethenyl-",C=CC1CO1,PHYSPROP
5470,5882.0,,,5471.0,http://www.alfa.com/en/GP100W.pgm?DSSTK=A14738,240.0,4-nitrobenzoic acid,c1cc(ccc1C(=O)O)[N+](=O)[O-],Alfa Aesar
10806,2034148.0,,,10807.0,http://dx.doi.org/10.1021/ci0500132,75.0,3-methyl-2-phenyl-1H-indene,CC=1c2ccccc2CC=1c1ccccc1,Karthikeyan M.; Glen R.C.; Bender A. General melting point prediction based on a diverse compound dataset and artificial neural networks. J. Chem. Inf. Model.; 2005; 45(3); 581-2389
582,109728.0,,,583.0,http://www.alfa.com/en/GP100W.pgm?DSSTK=A17953,-23.0,"1,3-dichloro-4-fluorobenzene",c1cc(c(cc1Cl)Cl)F,Alfa Aesar
7674,10571.0,,,7675.0,http://www.alfa.com/en/GP100W.pgm?DSSTK=A14070,-85.0,methyl isobutyrate,CC(C)C(=O)OC,Alfa Aesar
3897,11604.0,,,3898.0,http://www.alfa.com/en/GP100W.pgm?DSSTK=B23470,-4.0,3-ethylphenol,CCc1cccc(c1)O,Alfa Aesar
13986,7176.0,,,13987.0,http://www.amazon.com/dp/B003XEQTLE,128.0,methyl_4-hydroxybenzoate,Oc1ccc(cc1)C(=O)OC,Aldrich Chemical Company; Aldrich Catalog-Handbook of Fine Chemicals; Milwaukee; WI; 1984.
23109,60596.0,,,23110.0,http://www.srcinc.com/what-we-do/product.aspx?id=133,56.5,"methanone, phenyl-2-thienyl-",O=C(c1ccccc1)c2cccs2,PHYSPROP
3477,28345.0,,,3478.0,http://www.alfa.com/en/GP100W.pgm?DSSTK=A15845,117.0,"3,5-diisopropylsalicylic acid",CC(C)c1cc(c(c(c1)C(=O)O)O)C(C)C,Alfa Aesar
14216,2863.0,,,14217.0,http://www.amazon.com/dp/B002IYRJWI,32.0,decanoic_acid,O=C(O)CCCCCCCCC,American Petroleum Institute. Research Project 44; Selected Values of Properties of Hydrocarbons and Related Compounds. Texas A & M University; College Station; TX; 1973.
14080,6119.0,,,14081.0,http://www.amazon.com/dp/B003XEQTLE,-55.0,bromodichloromethane,BrC(Cl)Cl,Aldrich Chemical Company; Aldrich Catalog-Handbook of Fine Chemicals; Milwaukee; WI; 1984.
9526,4715209.0,,,9527.0,http://dx.doi.org/10.1021/ci0500132,151.0,"(2E)-4,4,4-trifluoro-2-(pyridin-3-ylhydrazono)-1-thiophen-2-ylbutane-1,3-dione",s1cccc1C(=O)C(=NNc1c[nH0]ccc1)C(=O)C(F)(F)F,Karthikeyan M.; Glen R.C.; Bender A. General melting point prediction based on a diverse compound dataset and artificial neural networks. J. Chem. Inf. Model.; 2005; 45(3); 581-1109
1656,2016548.0,,,1657.0,http://www.alfa.com/en/GP100W.pgm?DSSTK=L18422,20.0,"2,5-dimethyl-3-furoyl chloride",Cc1cc(c(o1)C)C(=O)Cl,Alfa Aesar
3165,2019099.0,,,3166.0,http://www.alfa.com/en/GP100W.pgm?DSSTK=H27452,79.0,3-(methylthio)phenylacetic acid,CSc1cccc(c1)CC(=O)O,Alfa Aesar
5658,76162.0,,,5659.0,http://www.alfa.com/en/GP100W.pgm?DSSTK=B21126,157.0,"5,6-dimethoxyindole",COc1cc2cc[nH]c2cc1OC,Alfa Aesar
20927,6803.0,,,20928.0,http://www.srcinc.com/what-we-do/product.aspx?id=133,132.5,"3,3'-dichlorobenzidine",Nc1ccc(cc1Cl)c2ccc(N)c(Cl)c2,PHYSPROP
23029,59971.0,,,23030.0,http://www.srcinc.com/what-we-do/product.aspx?id=133,283.5,chloranilic acid,OC=1C(=O)C(Cl)=C(O)C(=O)C=1Cl,PHYSPROP
21159,6340.0,,,21160.0,http://www.srcinc.com/what-we-do/product.aspx?id=133,-128.8,"2,3-dimethylbutane",CC(C)C(C)C,PHYSPROP
13492,13839308.0,,,13493.0,http://www.amazon.com/dp/B003XEQTLE,-24.0,benzyl_cyanide,N#CCc1ccccc1,Aldrich Chemical Company; Aldrich Catalog-Handbook of Fine Chemicals; Milwaukee; WI; 1984.
20545,7566.0,,,20546.0,http://www.srcinc.com/what-we-do/product.aspx?id=133,-92.8,propionitrile,CCC#N,PHYSPROP
7083,21407.0,,,7084.0,http://www.alfa.com/en/GP100W.pgm?DSSTK=H26951,127.0,ethyl 3-cyano-3-phenylpyruvate,CCOC(=O)C(=O)C(C#N)c1ccccc1,Alfa Aesar
4113,7010.0,,,4114.0,http://www.alfa.com/en/GP100W.pgm?DSSTK=L03133,-118.0,3-methylpentane,CCC(C)CC,Alfa Aesar
10441,2036149.0,,,10442.0,http://dx.doi.org/10.1021/ci0500132,168.0,"5-(4-methylphenyl)-3-naphthalen-2-yl-1-phenyl-4,5-dihydro-1H-pyrazole",N=1N(c2ccccc2)C(CC=1c1ccc2ccccc2c1)c1ccc(C)cc1,Karthikeyan M.; Glen R.C.; Bender A. General melting point prediction based on a diverse compound dataset and artificial neural networks. J. Chem. Inf. Model.; 2005; 45(3); 581-2024
27387,4510679.0,,,27388.0,,122.0,"(2E)-3-Benzo[1,3]dioxol-5-yl-1-phenyl-2-propen-1-one",O1C2=C(OC1)C=C(C=C2)\C=C\C(=O)C3=CC=CC=C3,Chem.Abstr.
2567,8373.0,,,2568.0,http://www.alfa.com/en/GP100W.pgm?DSSTK=A12644,-59.0,2-ethylhexanoic acid,CCCCC(CC)C(=O)O,Alfa Aesar
27686,8665.0,,,27687.0,http://www.sigmaaldrich.com/united-states.html,55.0,4-methoxyphenol,COc1ccc(cc1)O,Sigma-Aldrich
10076,3575935.0,,,10077.0,http://dx.doi.org/10.1021/ci0500132,126.0,3-ethyl-17-oxoandrostan-3-yl acetate,O=C1CCC2C3CCC4CC(OC(=O)C)(CCC4(C)C3CCC12C)CC,Karthikeyan M.; Glen R.C.; Bender A. General melting point prediction based on a diverse compound dataset and artificial neural networks. J. Chem. Inf. Model.; 2005; 45(3); 581-1659
508,66698.0,,,509.0,http://www.alfa.com/en/GP100W.pgm?DSSTK=A18182,28.0,"1,4-diacetoxy-2-butyne",CC(=O)OCC#CCOC(=O)C,Alfa Aesar
1796,202207.0,,,1797.0,http://www.alfa.com/en/GP100W.pgm?DSSTK=H26982,93.0,"2,6-dimethoxy-4-methylbenzaldehyde",Cc1cc(c(c(c1)OC)C=O)OC,Alfa Aesar
19157,11620.0,,,19158.0,http://www.srcinc.com/what-we-do/product.aspx?id=133,95.0,caprylanilide,O=C(Nc1ccccc1)CCCCC,PHYSPROP
2161,2058440.0,,,2162.0,http://www.alfa.com/en/GP100W.pgm?DSSTK=B25394,155.0,2-bromo-5-fluorobenzoic acid,c1cc(c(cc1F)C(=O)O)Br,Alfa Aesar