,csid,donotuse,donotusebecause,key,link,mpC,name,smiles,source
25039,348038.0,,,25040.0,http://www.srcinc.com/what-we-do/product.aspx?id=133,208.0,"2h-pyran-2,5-dicarboxylic acid, tetrahydro-2,6,6",CC1(C)OC(C)(CCC1C(=O)O)C(=O)O,PHYSPROP
1024,13836021.0,,,1025.0,http://www.alfa.com/en/GP100W.pgm?DSSTK=B23180,-5.0,2-(methylamino)ethanol,CNCCO,Alfa Aesar
20948,6772.0,,,20949.0,http://www.srcinc.com/what-we-do/product.aspx?id=133,129.0,"1,3-benzenedimethanol, 2-hydroxy-5-methyl-",OCc1cc(C)cc(CO)c1O,PHYSPROP
12460,467749.0,,,12461.0,http://dx.doi.org/10.1021/ci0500132,238.0,"17-(1,5-dimethylhexyl)-10,13-dimethylperhydrocyclopenta[a]phenanthrene-3,5,6-triol",OC1CCC2(C)C3CCC4(C)C(CCC4C(C)CCCC(C)C)C3CC(O)C2(O)C1,Karthikeyan M.; Glen R.C.; Bender A. General melting point prediction based on a diverse compound dataset and artificial neural networks. J. Chem. Inf. Model.; 2005; 45(3); 581-4043
24784,124222.0,,,24785.0,http://www.srcinc.com/what-we-do/product.aspx?id=133,205.5,3-hydroxycamphor,CC2(C)C1CCC2(C)C(=O)C1O,PHYSPROP
22101,2441.0,,,22102.0,http://www.srcinc.com/what-we-do/product.aspx?id=133,178.8,"(1r,4r)-(+)-camphor",CC2(C)C1CC(=O)C2(C)CC1,PHYSPROP
12217,1266814.0,,,12218.0,http://dx.doi.org/10.1021/ci0500132,149.0,4-(2-Fluoro-benzylidene)-2-phenyl-4H-oxazol-5-one,Fc1ccccc1C=C1N=C(OC1=O)c1ccccc1,Karthikeyan M.; Glen R.C.; Bender A. General melting point prediction based on a diverse compound dataset and artificial neural networks. J. Chem. Inf. Model.; 2005; 45(3); 581-3800
26652,13875392.0,,,26653.0,http://www.srcinc.com/what-we-do/product.aspx?id=133,-39.8,m-bromotoluene,Cc1cc(Br)ccc1,PHYSPROP
16063,7712.0,,,16064.0,http://msds.chem.ox.ac.uk/,-130.0,Pentane,CCCCC,academic website
5353,7406.0,,,5354.0,http://www.alfa.com/en/GP100W.pgm?DSSTK=A14399,87.0,4-methoxyphenylacetic acid,COc1ccc(cc1)CC(=O)O,Alfa Aesar
4005,2018184.0,,,4006.0,http://www.alfa.com/en/GP100W.pgm?DSSTK=B20377,205.0,3-hydroxyadamantane-1-carboxylic acid,C1C2CC3(CC1CC(C2)(C3)O)C(=O)O,Alfa Aesar
28125,278.0,,,28126.0,http://pubs.acs.org/doi/abs/10.1021/j150617a021,8.32,formic acid,C(=O)O,Kohler F; Atrops H; Kalali H; Libermann E; Wilhelm E; Ratkovics F; Salamon T Journal of Physical Chemistry; 85(17); 2520-2524 (1981)
3104,451940.0,,,3105.0,http://www.alfa.com/en/GP100W.pgm?DSSTK=L06208,105.0,3-(2-naphthylthio)propionic acid,c1ccc2cc(ccc2c1)SCCC(=O)O,Alfa Aesar
27815,5976.0,,,27816.0,http://dx.doi.org/10.1080/10629360701430124,248.0,barbituric acid,O=C1NC(=O)NC(=O)C1,RAEVSKY OA; PERLOVICH GL and SCHAPER K-J. Physicochemical properties/descriptors governing the solubility and partitioning of chemicals in water-solvent-gas systems. Part 2. Solubility in 1-octanol. SAR and QSAR in Environmental Research Vol. 18 Nos. 5–6 July–September 2007 543–578
1227,128345.0,,,1228.0,http://www.alfa.com/en/GP100W.pgm?DSSTK=B20056,46.0,"2,3,6-trifluorobenzyl alcohol",c1cc(c(c(c1F)CO)F)F,Alfa Aesar
25642,4477828.0,,,25643.0,http://www.srcinc.com/what-we-do/product.aspx?id=133,170.0,ergosterol,CC(C)C(C)/C=C/C(C)C1CCC2C3=CC=C4CC(O)CCC4(C)C3CCC12C,PHYSPROP
10639,2034751.0,,,10640.0,http://dx.doi.org/10.1021/ci0500132,159.0,"3-[(E)-(4-methoxyphenyl)diazenyl]-5-methyl-7-(trifluoromethyl)pyrazolo[1,5-a]pyrimidin-2-amine",FC(F)(F)C=1[nH0]2[nH0]c(N)c(N=Nc3ccc(OC)cc3)c2N=C(C)C=1,Karthikeyan M.; Glen R.C.; Bender A. General melting point prediction based on a diverse compound dataset and artificial neural networks. J. Chem. Inf. Model.; 2005; 45(3); 581-2222
2608,66646.0,,,2609.0,http://www.alfa.com/en/GP100W.pgm?DSSTK=A14464,35.0,2-fluoro-4-nitrotoluene,Cc1ccc(cc1F)[N+](=O)[O-],Alfa Aesar
12573,244846.0,,,12574.0,http://dx.doi.org/10.1021/ci0500132,123.0,"2-(2,4-dinitrophenyl)-4-methyl-5-nitro-2H-1,2,3-triazole",O=[N+]([O-])c1ccc([nH0]2[nH0]c([N+](=O)[O-])c([nH0]2)C)c([N+](=O)[O-])c1,Karthikeyan M.; Glen R.C.; Bender A. General melting point prediction based on a diverse compound dataset and artificial neural networks. J. Chem. Inf. Model.; 2005; 45(3); 581-4156
24766,122020.0,,,24767.0,http://www.srcinc.com/what-we-do/product.aspx?id=133,-7.0,"furazan, dimethyl-",Cc1nonc1C,PHYSPROP
23843,67479.0,,,23844.0,http://www.srcinc.com/what-we-do/product.aspx?id=133,-41.0,"hexanoic acid, anhydride",O=C(CCCCC)OC(=O)CCCCC,PHYSPROP
16927,5145.0,,,16928.0,http://www.drugbank.ca/drugs/DB00891,192.0,Sulfapyridine,O=S(=O)(Nc1ccccn1)c2ccc(N)cc2,DrugBank
2127,61599.0,,,2128.0,http://www.alfa.com/en/GP100W.pgm?DSSTK=A12607,96.0,2-bromo-4'-chloroacetophenone,c1cc(ccc1C(=O)CBr)Cl,Alfa Aesar
15375,558483.0,,,15376.0,http://msds.chem.ox.ac.uk/,260.5,3-Fluoro-L-tyrosine,Fc1cc(C[C@H](N)C(=O)O)ccc1O,academic website
20528,7603.0,,,20529.0,http://www.srcinc.com/what-we-do/product.aspx?id=133,-112.0,1-bromo-3-methylbutane,CC(C)CCBr,PHYSPROP
9464,4774280.0,,,9465.0,http://dx.doi.org/10.1021/ci0500132,186.0,"1,5-dimethyl-4-{(2E)-2-[5-oxo-1-phenyl-3-(trifluoromethyl)-1,5-dihydro-4H-pyrazol-4-ylidene]hydrazino}-2-phenyl-1,2-dihydro-3H-pyrazol-3-one",FC(F)(F)C1=NN(c2ccccc2)C(=O)C1=NNC=1C(=O)N(N(C)C=1C)c1ccccc1,Karthikeyan M.; Glen R.C.; Bender A. General melting point prediction based on a diverse compound dataset and artificial neural networks. J. Chem. Inf. Model.; 2005; 45(3); 581-1047
5178,62929.0,,,5179.0,http://www.alfa.com/en/GP100W.pgm?DSSTK=B22861,27.0,4'-fluorovalerophenone,CCCCC(=O)c1ccc(cc1)F,Alfa Aesar
4137,189942.0,,,4138.0,http://www.alfa.com/en/GP100W.pgm?DSSTK=L09144,124.0,3-nitrobenzaldoxime,c1cc(cc(c1)[N+](=O)[O-])C=NO,Alfa Aesar
12526,280597.0,,,12527.0,http://dx.doi.org/10.1021/ci0500132,90.0,"8a-methyl-6-oxo-1,2,3,4,6,7,8,8a-octahydronaphthalen-1-yl acetate",O=C1C=C2CCCC(OC(=O)C)C2(C)CC1,Karthikeyan M.; Glen R.C.; Bender A. General melting point prediction based on a diverse compound dataset and artificial neural networks. J. Chem. Inf. Model.; 2005; 45(3); 581-4109
11798,2030425.0,,,11799.0,http://dx.doi.org/10.1021/ci0500132,98.0,"2-AMINO-3,5-DIBROMOBENZOPHENONE",Brc1cc(Br)c(N)c(c1)C(=O)c1ccccc1,Karthikeyan M.; Glen R.C.; Bender A. General melting point prediction based on a diverse compound dataset and artificial neural networks. J. Chem. Inf. Model.; 2005; 45(3); 581-3381
310,12230.0,,,311.0,http://www.alfa.com/en/GP100W.pgm?DSSTK=A11782,-13.0,1-bromo-2-chlorobenzene,c1ccc(c(c1)Cl)Br,Alfa Aesar
19997,9007.0,,,19998.0,http://www.srcinc.com/what-we-do/product.aspx?id=133,68.5,pivalylbenzhydrazine,CC(C)(C)C(=O)NNCc1ccccc1,PHYSPROP
3605,505808.0,,,3606.0,http://www.alfa.com/en/GP100W.pgm?DSSTK=L19726,61.0,3-amino-4-chloropyridine,c1cncc(c1Cl)N,Alfa Aesar
5948,678694.0,,,5949.0,http://www.alfa.com/en/GP100W.pgm?DSSTK=B25733,155.0,5-isopropyl-1h-pyrazole-3-carboxylic acid,CC(C)c1cc(n[nH]1)C(=O)O,Alfa Aesar
6317,1913.0,,,6318.0,http://www.alfa.com/en/GP100W.pgm?DSSTK=L01569,88.0,acetohydroxamic acid,CC(=O)NO,Alfa Aesar
8667,7334.0,,,8668.0,http://www.alfa.com/en/GP100W.pgm?DSSTK=A10285,-93.0,tri-n-propylamine,CCCN(CCC)CCC,Alfa Aesar
20768,7101.0,,,20769.0,http://www.srcinc.com/what-we-do/product.aspx?id=133,27.5,4-(t-butyl)-2-cresol,Cc1cc(ccc1O)C(C)(C)C,PHYSPROP
14816,4911379.0,,,14817.0,http://msds.chem.ox.ac.uk/,75.0,(3Z)-3-(Hydroxyimino)butan-2-one,CC(=O)C(/C)=NO,academic website
23452,62645.0,,,23453.0,http://www.srcinc.com/what-we-do/product.aspx?id=133,225.0,"benzene, 1,1',1'',1'''-(1,2-ethenediylidene)tetr",c1ccccc1C(=C(c2ccccc2)c3ccccc3)/c4ccccc4,PHYSPROP
9100,10484161.0,,,9101.0,http://dx.doi.org/10.1021/ci0500132,292.0,"4-hydroxy-1-methyl-3-[(4Z)-5-oxo-4-(pyridin-2-ylmethylidene)-4,5-dihydro-1H-pyrazol-3-yl]quinolin-2(1H)-one",O=C1N(C)c2ccccc2C(O)=C1C1=NNC(=O)C1=Cc1[nH0]cccc1,Karthikeyan M.; Glen R.C.; Bender A. General melting point prediction based on a diverse compound dataset and artificial neural networks. J. Chem. Inf. Model.; 2005; 45(3); 581-681
9843,4644640.0,,,9844.0,http://dx.doi.org/10.1021/ci0500132,270.0,"N,N'-{(4,6-dinitrobenzene-1,3-diyl)bis[(E)ethene-2,1-diylbenzene-2,1-diyl]}diacetamide",O=[N+]([O-])c1cc([N+](=O)[O-])c(cc1C=Cc1ccccc1NC(=O)C)C=Cc1ccccc1NC(=O)C,Karthikeyan M.; Glen R.C.; Bender A. General melting point prediction based on a diverse compound dataset and artificial neural networks. J. Chem. Inf. Model.; 2005; 45(3); 581-1426
26206,10443100.0,,,26207.0,http://www.srcinc.com/what-we-do/product.aspx?id=133,209.5,"1-(2,3-dichloro),2-dibenzoyl-1-tert-butylhydrazi",Clc1c(cccc1Cl)C(=O)N(NC(=O)c2ccccc2)C(C)(C)C,PHYSPROP
9640,4645489.0,,,9641.0,http://dx.doi.org/10.1021/ci0500132,202.0,"5-[(3-chlorophenyl)hydrazono]-1,3-dimethylpyrimidine-2,4,6(1H,3H,5H)-trione",Clc1cccc(NN=C2C(=O)N(C)C(=O)N(C)C2=O)c1,Karthikeyan M.; Glen R.C.; Bender A. General melting point prediction based on a diverse compound dataset and artificial neural networks. J. Chem. Inf. Model.; 2005; 45(3); 581-1223
14747,4517399.0,,,14748.0,http://msds.chem.ox.ac.uk/,79.0,(13Z)-Docos-13-enamide,NC(=O)CCCCCCCCCCC/C=CCCCCCCCC,academic website
25438,2272544.0,,,25439.0,http://www.srcinc.com/what-we-do/product.aspx?id=133,192.5,fusidic acid,O=C(O)C(CCC=C(/C)C)=C4[C@@H](OC(C)=O)C[C@@]2(C)[C@H]4C[C@@H](O)C1[C@@]3(C)CC[C@@H](O)[C@@H](C)[C@@H]3CC[C@@]12C,PHYSPROP
5404,59426.0,,,5405.0,http://www.alfa.com/en/GP100W.pgm?DSSTK=A13768,12.0,4-methylbenzylamine,Cc1ccc(cc1)CN,Alfa Aesar
15410,7974.0,,,15411.0,http://msds.chem.ox.ac.uk/,241.0,"4,4'-(1,1-Dioxido-3H-2,1-benzoxathiole-3,3-diyl)bis(2-bromo-6-methylphenol)",Cc1cc(cc(Br)c1O)C3(OS(=O)(=O)c2ccccc23)c4cc(C)c(O)c(Br)c4,academic website
3374,137607.0,,,3375.0,http://www.alfa.com/en/GP100W.pgm?DSSTK=A11373,222.0,"3,5-bis(trifluoromethyl)benzeneboronic acid",B(c1cc(cc(c1)C(F)(F)F)C(F)(F)F)(O)O,Alfa Aesar
8437,5136.0,,,8438.0,http://www.alfa.com/en/GP100W.pgm?DSSTK=A19276,200.0,sulfamethazine,Cc1cc(nc(n1)NS(=O)(=O)c2ccc(cc2)N)C,Alfa Aesar
17197,389880.0,,,17198.0,http://dx.doi.org/10.1021/ci700307p,174.5,quinidine,COc1cc2c(cc1)nccc2[C@H](O)[C@H]4C[C@@H]3CC[N@]4C[C@@H]3C=C,Hughes LD; Palmer DS; Nigsch F and Mitchell JBO. 2008 Why are some properties more difficult to predict than others? A study of QSPR models of solubility; melting point and LogP. J. Chem. Inf. Model. 2008. 48 (1). pp 220?345
2798,589577.0,,,2799.0,http://www.alfa.com/en/GP100W.pgm?DSSTK=H32733,234.0,2-mercapto-7-methoxy-4-methylquinoline,Cc1cc(nc2c1ccc(c2)OC)S,Alfa Aesar
7764,17674.0,,,7765.0,http://www.alfa.com/en/GP100W.pgm?DSSTK=L11250,-18.0,N-(3-aminopropyl)cyclohexylamine,C1CCC(CC1)NCCCN,Alfa Aesar
25321,559027.0,,,25322.0,http://www.srcinc.com/what-we-do/product.aspx?id=133,-138.5,trans-3-methyl-2-pentene,CC=C(C)CC,PHYSPROP
17629,24341.0,,,17630.0,http://www.srcinc.com/what-we-do/product.aspx?id=133,270.5,isonicotinic acid n-oxide,[O-][n+]1ccc(cc1)C(O)=O,PHYSPROP
290,7603.0,,,291.0,http://www.alfa.com/en/GP100W.pgm?DSSTK=A14492,-112.0,1-bromo-3-methylbutane,CC(C)CCBr,Alfa Aesar
6929,13837319.0,,,6930.0,http://www.alfa.com/en/GP100W.pgm?DSSTK=31244,-35.0,di-n-butyl phthalate,CCCCOC(=O)c1ccccc1C(=O)OCCCC,Alfa Aesar
10324,2036502.0,,,10325.0,http://dx.doi.org/10.1021/ci0500132,164.0,"2-[(4-methoxybenzyl)amino]naphthalene-1,4-dione",O=C1C=C(NCc2ccc(OC)cc2)C(=O)c2ccccc12,Karthikeyan M.; Glen R.C.; Bender A. General melting point prediction based on a diverse compound dataset and artificial neural networks. J. Chem. Inf. Model.; 2005; 45(3); 581-1907
13321,13842.0,,,13322.0,http://www.amazon.com/dp/B002IYRJWI,-54.0,"cis-1,2-dimethylcyclopentane",C[C@@H]1CCC[C@@H]1C,American Petroleum Institute. Research Project 44; Selected Values of Properties of Hydrocarbons and Related Compounds. Texas A & M University; College Station; TX; 1973.
6852,5931.0,,,6853.0,http://www.alfa.com/en/GP100W.pgm?DSSTK=L14291,-25.0,diethyl sulfate,CCOS(=O)(=O)OCC,Alfa Aesar
7552,21242187.0,,,7553.0,http://www.alfa.com/en/GP100W.pgm?DSSTK=B25444,42.0,methyl 3-chloro-5-iodobenzoate,COC(=O)c1cc(cc(c1)I)Cl,Alfa Aesar
25429,2055525.0,,,25430.0,http://www.srcinc.com/what-we-do/product.aspx?id=133,-122.0,difluoroiodomethane,FC(F)I,PHYSPROP
12108,2029247.0,,,12109.0,http://dx.doi.org/10.1021/ci0500132,161.0,"6-furan-2-yl-3-(4-methoxyphenyl)-5,6-dihydro[1,2,4]triazolo[3,4-b][1,3,4]thiadiazole",S1c2[nH0][nH0]c([nH0]2NC1c1occc1)c1ccc(OC)cc1,Karthikeyan M.; Glen R.C.; Bender A. General melting point prediction based on a diverse compound dataset and artificial neural networks. J. Chem. Inf. Model.; 2005; 45(3); 581-3691
9239,10219255.0,,,9240.0,http://dx.doi.org/10.1021/ci0500132,216.0,"(6beta,7alpha)-6,12-dihydroxy-11,14-dioxoabieta-8,12-dien-7-yl acetate",O=C1C2=C(C(=O)C(O)=C1C(C)C)C1(C)CCCC(C)(C)C1C(O)C2OC(=O)C,Karthikeyan M.; Glen R.C.; Bender A. General melting point prediction based on a diverse compound dataset and artificial neural networks. J. Chem. Inf. Model.; 2005; 45(3); 581-822
5005,10175054.0,,,5006.0,http://www.alfa.com/en/GP100W.pgm?DSSTK=H25938,32.0,4-cyano-2-fluoropyridine,c1cnc(cc1C#N)F,Alfa Aesar
25744,4518877.0,,,25745.0,http://www.srcinc.com/what-we-do/product.aspx?id=133,-53.0,"1,4-cyclooctadiene",C1C=CCC=CCC1,PHYSPROP
21633,4649.0,,,21634.0,http://www.srcinc.com/what-we-do/product.aspx?id=133,124.0,picotamide,O=C(NCc1cccnc1)c3cc(C(=O)NCc2cccnc2)c(OC)cc3,PHYSPROP
5410,63512.0,,,5411.0,http://www.alfa.com/en/GP100W.pgm?DSSTK=A13230,140.0,4-methylphenoxyacetic acid,Cc1ccc(cc1)OCC(=O)O,Alfa Aesar
11008,2033795.0,,,11009.0,http://dx.doi.org/10.1021/ci0500132,89.0,"dimethyl 8-methoxy-1-oxo-1,4-dihydro-3H-isochromene-3,3-dicarboxylate",O=C1OC(Cc2cccc(OC)c12)(C(=O)OC)C(=O)OC,Karthikeyan M.; Glen R.C.; Bender A. General melting point prediction based on a diverse compound dataset and artificial neural networks. J. Chem. Inf. Model.; 2005; 45(3); 581-2591
14100,11418392.0,,,14101.0,http://de.wikipedia.org/wiki/Beilsteins_Handbuch_der_Organischen_Chemie,122.0,o-acetylbenzamide,O=C(N)c1ccccc1C(C)=O,Beilstein F. K.; Beilsteins Handbuch der Organischen Chemie. Springer; Berlin; 1972.
17548,26768.0,,,17549.0,http://www.srcinc.com/what-we-do/product.aspx?id=133,92.6,n-(cyclohexylthio)phthalimide,O=C3c1ccccc1C(=O)N3SC2CCCCC2,PHYSPROP
10103,3258183.0,,,10104.0,http://dx.doi.org/10.1021/ci0500132,127.0,"3-ethyl-10,13-dimethylhexadecahydrospiro[cyclopenta[a]phenanthrene-17,2'-[1,3]dioxolan]-3-ol",OC1(CCC2(C)C(CCC3C4CCC5(OCCO5)C4(C)CCC32)C1)CC,Karthikeyan M.; Glen R.C.; Bender A. General melting point prediction based on a diverse compound dataset and artificial neural networks. J. Chem. Inf. Model.; 2005; 45(3); 581-1686
6137,84621.0,,,6138.0,http://www.alfa.com/en/GP100W.pgm?DSSTK=B25154,37.0,6-hexadecanone,CCCCCCCCCCC(=O)CCCCC,Alfa Aesar
9665,4645435.0,,,9666.0,http://dx.doi.org/10.1021/ci0500132,133.0,"(2E)-3-(2,4-dichlorophenyl)-2-(4-naphthalen-1-yl-1,3-thiazol-2-yl)prop-2-enenitrile",Clc1ccc(C=C(C#N)c2scc([nH0]2)c2cccc3ccccc32)c(Cl)c1,Karthikeyan M.; Glen R.C.; Bender A. General melting point prediction based on a diverse compound dataset and artificial neural networks. J. Chem. Inf. Model.; 2005; 45(3); 581-1248
14519,8329.0,,,14520.0,http://www.amazon.com/dp/B003XEQTLE,95.0,benzil,O=C(C(=O)c1ccccc1)c2ccccc2,Aldrich Chemical Company; Aldrich Catalog-Handbook of Fine Chemicals; Milwaukee; WI; 1984.
23551,63228.0,,,23552.0,http://www.srcinc.com/what-we-do/product.aspx?id=133,59.5,"methanone, bis(2-hydroxyphenyl)-",O=C(c1ccccc1O)c2ccccc2O,PHYSPROP
17648,23874.0,,,17649.0,http://www.srcinc.com/what-we-do/product.aspx?id=133,25.8,"benzene, 1,2-dichloro-4-(trichloromethyl)-",Clc1ccc(cc1Cl)C(Cl)(Cl)Cl,PHYSPROP
5134,21379244.0,,,5135.0,http://www.alfa.com/en/GP100W.pgm?DSSTK=H30525,106.0,4-fluoro-3-methylphenylacetic acid,Cc1cc(ccc1F)CC(=O)O,Alfa Aesar
434,13835579.0,,,435.0,http://www.alfa.com/en/GP100W.pgm?DSSTK=A14212,41.0,"1,6-diaminohexane",C(CCCN)CCN,Alfa Aesar
1962,6994.0,,,1963.0,http://www.alfa.com/en/GP100W.pgm?DSSTK=A19546,136.0,2-amino-4-methylphenol,Cc1ccc(c(c1)N)O,Alfa Aesar
859,5360910.0,,,860.0,http://www.alfa.com/en/GP100W.pgm?DSSTK=B23117,44.0,(S)-alpha-methoxy-alpha-(trifluoromethyl)phenylacetic acid,CO[C@@](c1ccccc1)(C(=O)O)C(F)(F)F,Alfa Aesar
23339,62303.0,,,23340.0,http://www.srcinc.com/what-we-do/product.aspx?id=133,110.0,5-nitro isoquinoline,[O-][N+](=O)c2cccc1cnccc12,PHYSPROP
12036,2029389.0,,,12037.0,http://dx.doi.org/10.1021/ci0500132,104.0,"methyl 3,5-dimethoxy-4-methylbenzoate",O=C(OC)c1cc(OC)c(C)c(OC)c1,Karthikeyan M.; Glen R.C.; Bender A. General melting point prediction based on a diverse compound dataset and artificial neural networks. J. Chem. Inf. Model.; 2005; 45(3); 581-3619
2072,21107920.0,,,2073.0,http://www.alfa.com/en/GP100W.pgm?DSSTK=H27364,71.0,2-benzyloxy-3-hydroxypyridine,c1ccc(cc1)COc2c(cccn2)O,Alfa Aesar
12026,2029435.0,,,12027.0,http://dx.doi.org/10.1021/ci0500132,192.0,"7,8,17,18-tetrahydrodibenzo[f,n][1,4,9,12]tetraoxacyclohexadecine-5,10,15,20-tetrone",O=C1OCCOC(=O)c2ccccc2C(=O)OCCOC(=O)c2ccccc21,Karthikeyan M.; Glen R.C.; Bender A. General melting point prediction based on a diverse compound dataset and artificial neural networks. J. Chem. Inf. Model.; 2005; 45(3); 581-3609
16829,2710.0,,,16830.0,http://www.drugbank.ca/drugs/DB00257,148.0,Clotrimazole,Clc1ccccc1C(c2ccccc2)(c3ccccc3)n4ccnc4,DrugBank
12340,600595.0,,,12341.0,http://dx.doi.org/10.1021/ci0500132,280.0,"5-{[5-(4-Chlorophenyl)-2-furyl]methylene}-2-thioxodihydropyrimidine-4,6(1H,5H)-dione",Clc1ccc(cc1)c1oc(cc1)C=C1C(=O)NC(=S)NC1=O,Karthikeyan M.; Glen R.C.; Bender A. General melting point prediction based on a diverse compound dataset and artificial neural networks. J. Chem. Inf. Model.; 2005; 45(3); 581-3923
10135,3168749.0,,,10136.0,http://dx.doi.org/10.1021/ci0500132,227.0,"1,4,5,5a,6a,7,8,11,12,12a,13a,14-dodecahydropentacene-6,13-dione",O=C1C2CC=3CC=CCC=3CC2C(=O)C2CC=3CC=CCC=3CC12,Karthikeyan M.; Glen R.C.; Bender A. General melting point prediction based on a diverse compound dataset and artificial neural networks. J. Chem. Inf. Model.; 2005; 45(3); 581-1718
17321,913.0,,,17322.0,http://dx.doi.org/10.1021/ci700307p,236.6,nicotinic acid,O=C(O)c1cccnc1,Hughes LD; Palmer DS; Nigsch F and Mitchell JBO. 2008 Why are some properties more difficult to predict than others? A study of QSPR models of solubility; melting point and LogP. J. Chem. Inf. Model. 2008. 48 (1). pp 220?469
11709,2030616.0,,,11710.0,http://dx.doi.org/10.1021/ci0500132,137.0,"2-methyl-1,4-dinitrosobenzene",O=Nc1ccc(N=O)c(C)c1,Karthikeyan M.; Glen R.C.; Bender A. General melting point prediction based on a diverse compound dataset and artificial neural networks. J. Chem. Inf. Model.; 2005; 45(3); 581-3292
26170,10442628.0,,,26171.0,http://www.srcinc.com/what-we-do/product.aspx?id=133,183.5,clozapine,CN1CCN(CC1)C2=Nc4cc(Cl)ccc4Nc3ccccc23,PHYSPROP
11029,2033768.0,,,11030.0,http://dx.doi.org/10.1021/ci0500132,76.0,"7-phenylbicyclo[4.2.0]octa-1,3,5-trien-7-yl acetate",O=C(OC1(Cc2ccccc21)c1ccccc1)C,Karthikeyan M.; Glen R.C.; Bender A. General melting point prediction based on a diverse compound dataset and artificial neural networks. J. Chem. Inf. Model.; 2005; 45(3); 581-2612
10311,2036523.0,,,10312.0,http://dx.doi.org/10.1021/ci0500132,145.0,"N-[4-(dimethylamino)benzyl]-3,5-dinitrobenzamide",O=[N+]([O-])c1cc([N+](=O)[O-])cc(c1)C(=O)NCc1ccc(N(C)C)cc1,Karthikeyan M.; Glen R.C.; Bender A. General melting point prediction based on a diverse compound dataset and artificial neural networks. J. Chem. Inf. Model.; 2005; 45(3); 581-1894
9894,4644505.0,,,9895.0,http://dx.doi.org/10.1021/ci0500132,179.0,"5-[(E)-2-(2,4-dinitrophenyl)ethenyl]-1,3-benzodioxole",O=[N+]([O-])c1ccc(C=Cc2ccc3OCOc3c2)c([N+](=O)[O-])c1,Karthikeyan M.; Glen R.C.; Bender A. General melting point prediction based on a diverse compound dataset and artificial neural networks. J. Chem. Inf. Model.; 2005; 45(3); 581-1477
3490,9954.0,,,3491.0,http://www.alfa.com/en/GP100W.pgm?DSSTK=B22283,46.0,"3,5-dimethoxyphenol",COc1cc(cc(c1)OC)O,Alfa Aesar