,csid,donotuse,donotusebecause,key,link,mpC,name,smiles,source
13369,14758.0,,,13370.0,http://www.amazon.com/dp/B002IYRJWI,-104.0,2-methyl-2-butanethiol,CC(C)(S)CC,American Petroleum Institute. Research Project 44; Selected Values of Properties of Hydrocarbons and Related Compounds. Texas A & M University; College Station; TX; 1973.
17852,20139.0,,,17853.0,http://www.srcinc.com/what-we-do/product.aspx?id=133,32.5,"2,6-dimethylcyclohexanol",CC1CCCC(C)C1O,PHYSPROP
20461,7724.0,,,20462.0,http://www.srcinc.com/what-we-do/product.aspx?id=133,129.0,"acetonitrile, (methyleneamino)-",C=NCC#N,PHYSPROP
1523,599704.0,,,1524.0,http://www.alfa.com/en/GP100W.pgm?DSSTK=B20564,100.0,"2,4-dimethoxy-beta-nitrostyrene",COc1ccc(c(c1)OC)/C=C/[N+](=O)[O-],Alfa Aesar
14477,62884.0,,,14478.0,http://www.amazon.com/dp/B003XEQTLE,191.0,p-bromobenzamide,O=C(N)c1ccc(Br)cc1,Aldrich Chemical Company; Aldrich Catalog-Handbook of Fine Chemicals; Milwaukee; WI; 1984.
3857,510345.0,,,3858.0,http://www.alfa.com/en/GP100W.pgm?DSSTK=A12542,46.0,3'-chloropropiophenone,CCC(=O)c1cccc(c1)Cl,Alfa Aesar
1621,456068.0,,,1622.0,http://www.alfa.com/en/GP100W.pgm?DSSTK=B20971,112.0,"2,5-difluorobenzamide",c1cc(c(cc1F)C(=O)N)F,Alfa Aesar
14354,21153.0,,,14355.0,http://www.amazon.com/dp/B002IYRJWI,21.0,2-dodecanone,CC(=O)CCCCCCCCCC,American Petroleum Institute. Research Project 44; Selected Values of Properties of Hydrocarbons and Related Compounds. Texas A & M University; College Station; TX; 1973.
21304,6106.0,,,21305.0,http://www.srcinc.com/what-we-do/product.aspx?id=133,6.1,methylene iodide,ICI,PHYSPROP
17800,20939.0,,,17801.0,http://www.srcinc.com/what-we-do/product.aspx?id=133,-90.0,s-(-)-limonene,CC1=CCC(CC1)C(C)=C,PHYSPROP
1216,5378365.0,,,1217.0,http://www.alfa.com/en/GP100W.pgm?DSSTK=L02384,112.0,"2,3,5,6-tetramethylbenzyl alcohol",Cc1cc(c(c(c1C)CO)C)C,Alfa Aesar
14403,5612.0,,,14404.0,http://www.amazon.com/dp/B003XEQTLE,208.0,"3,4-dichlorobenzoic_acid",Clc1ccc(cc1Cl)C(=O)O,Aldrich Chemical Company; Aldrich Catalog-Handbook of Fine Chemicals; Milwaukee; WI; 1984.
8488,7737.0,,,8489.0,http://www.alfa.com/en/GP100W.pgm?DSSTK=L13304,-108.0,tetrahydrofuran,C1CCOC1,Alfa Aesar
25743,4518877.0,,,25744.0,http://www.srcinc.com/what-we-do/product.aspx?id=133,-70.0,"1,5-cyclooctadiene, (z,z)-",C1C=CCC=CCC1,PHYSPROP
22270,1216.0,,,22271.0,http://www.srcinc.com/what-we-do/product.aspx?id=133,35.0,menthol,CC(C)C1CCC(C)CC1O,PHYSPROP
1970,2015958.0,,,1971.0,http://www.alfa.com/en/GP100W.pgm?DSSTK=A14115,101.0,2-amino-4-tert-butylthiazole,CC(C)(C)c1csc(n1)N,Alfa Aesar
18410,14942.0,,,18411.0,http://www.srcinc.com/what-we-do/product.aspx?id=133,-1.7,n-decylcyclohexane,CCCCCCCCCCC1CCCCC1,PHYSPROP
4023,542232.0,,,4024.0,http://www.alfa.com/en/GP100W.pgm?DSSTK=B24783,240.0,3-iodo-4-methoxybenzoic acid,COc1ccc(cc1I)C(=O)O,Alfa Aesar
14387,15488.0,,,14388.0,http://de.wikipedia.org/wiki/Beilsteins_Handbuch_der_Organischen_Chemie,18.0,3-chlorobiphenyl,Clc1cc(ccc1)c2ccccc2,Beilstein F. K.; Beilsteins Handbuch der Organischen Chemie. Springer; Berlin; 1972.
5000,83854.0,,,5001.0,http://www.alfa.com/en/GP100W.pgm?DSSTK=A14940,40.0,4-chromanol,c1ccc2c(c1)C(CCO2)O,Alfa Aesar
26376,10770962.0,,,26377.0,http://www.srcinc.com/what-we-do/product.aspx?id=133,139.5,lapachol,C/C(C)=CCC=2C(=O)c1ccccc1C(=O)C=2O,PHYSPROP
11005,2033798.0,,,11006.0,http://dx.doi.org/10.1021/ci0500132,166.0,"dimethyl 5,6,7,8-tetramethyl-1-oxo-1,4-dihydro-3H-isochromene-3,3-dicarboxylate",O=C1OC(Cc2c(C)c(C)c(C)c(C)c12)(C(=O)OC)C(=O)OC,Karthikeyan M.; Glen R.C.; Bender A. General melting point prediction based on a diverse compound dataset and artificial neural networks. J. Chem. Inf. Model.; 2005; 45(3); 581-2588
8785,2457.0,,,8786.0,http://dx.doi.org/10.1021/ci020280x,190.0,carbamazepine,NC(=O)N2c1ccccc1C=Cc3ccccc23,Bergstrom C. A. S.; Norinder U.; Luthman K.; Artursson P. Molecular Descriptors Influencing Melting Point and Their Role in Classification of Solid Drugs. J. Chem. Inf. Comput. Sci.; (Article); 2003; 43(4); 1177-1232
24099,71614.0,,,24100.0,http://www.srcinc.com/what-we-do/product.aspx?id=133,87.0,3-ethyl-3-methyl-pentanedioic acid,OC(=O)CC(C)(CC)CC(=O)O,PHYSPROP
12159,2005896.0,x,salt,12160.0,http://dx.doi.org/10.1021/ci0500132,222.0,4-Methylpyrimidine-2-thiol hydrochloride (1:1),Cl.Sc1[nH0]ccc([nH0]1)C,Karthikeyan M.; Glen R.C.; Bender A. General melting point prediction based on a diverse compound dataset and artificial neural networks. J. Chem. Inf. Model.; 2005; 45(3); 581-3742
14083,68330.0,,,14084.0,http://de.wikipedia.org/wiki/Beilsteins_Handbuch_der_Organischen_Chemie,8.0,p-acetoxystyrene,O=C(C)Oc1ccc(cc1)C=C,Beilstein F. K.; Beilsteins Handbuch der Organischen Chemie. Springer; Berlin; 1972.
26100,10440611.0,,,26101.0,http://www.srcinc.com/what-we-do/product.aspx?id=133,80.5,"benzoic acid, 2-(acetyloxy)-, 2-(ethylamino)-2-o",O=C(C)Oc1ccccc1C(=O)OCC(=O)NCC,PHYSPROP
18859,12508.0,,,18860.0,http://www.srcinc.com/what-we-do/product.aspx?id=133,35.0,"mandelic acid, ethyl ester",OC(C(=O)OCC)c1ccccc1,PHYSPROP
10954,2033862.0,,,10955.0,http://dx.doi.org/10.1021/ci0500132,87.0,"7,9-dimethyl-6-oxo-6,11-dihydropyrido[1,2-b]isoquinolinium",O=C1[nH0+]2ccccc2Cc2cc(C)cc(C)c12,Karthikeyan M.; Glen R.C.; Bender A. General melting point prediction based on a diverse compound dataset and artificial neural networks. J. Chem. Inf. Model.; 2005; 45(3); 581-2537
22436,441.0,,,22437.0,http://www.srcinc.com/what-we-do/product.aspx?id=133,-23.0,octanal,CCCCCCCC=O,PHYSPROP
21177,6315.0,,,21178.0,http://www.srcinc.com/what-we-do/product.aspx?id=133,-140.0,2-chlorobutane,CC(Cl)CC,PHYSPROP
25494,2689046.0,,,25495.0,http://www.srcinc.com/what-we-do/product.aspx?id=133,138.0,"poly((6-((1,1,3,3-tetramethylbutyl)amino)-1,3,5-",CC1(C)CC(CC(C)(C)N1)N(CCCCCCNC2CC(C)(C)NC(C)(C)C2)c3ncnc(NC(C)(C)CC(C)(C)C)n3,PHYSPROP
15290,10113.0,,,15291.0,http://msds.chem.ox.ac.uk/,-134.0,2-Methylbut-2-ene,CC=C(/C)C,academic website
19971,9130.0,,,19972.0,http://www.srcinc.com/what-we-do/product.aspx?id=133,93.0,linuron,Clc1ccc(NC(=O)N(C)OC)cc1Cl,PHYSPROP
23896,68053.0,,,23897.0,http://www.srcinc.com/what-we-do/product.aspx?id=133,52.5,2-(dimethylamino)naphthalene,CN(C)c1ccc2ccccc2c1,PHYSPROP
1923,21242468.0,,,1924.0,http://www.alfa.com/en/GP100W.pgm?DSSTK=H27787,88.0,2-amino-3-iodo-5-methylpyridine,Cc1cc(c(nc1)N)I,Alfa Aesar
23150,61067.0,,,23151.0,http://www.srcinc.com/what-we-do/product.aspx?id=133,-78.7,difluorodiethyl silane,CC[Si](F)(F)CC,PHYSPROP
20132,8524.0,,,20133.0,http://www.srcinc.com/what-we-do/product.aspx?id=133,81.5,3-iodopropionic acid,ICCC(=O)O,PHYSPROP
19673,10287.0,,,19674.0,http://www.srcinc.com/what-we-do/product.aspx?id=133,8.2,"1,1-diphenylethylene",C=C(c1ccccc1)c2ccccc2,PHYSPROP
15764,12994.0,,,15765.0,http://msds.chem.ox.ac.uk/,29.0,Dodecan-1-amine,CCCCCCCCCCCCN,academic website
23325,62250.0,,,23326.0,http://www.srcinc.com/what-we-do/product.aspx?id=133,125.0,"3,3,3-trichloro-2-hydroxy-propionic acid",O=C(O)C(O)C(Cl)(Cl)Cl,PHYSPROP
3402,2017619.0,,,3403.0,http://www.alfa.com/en/GP100W.pgm?DSSTK=B24946,182.0,"3,5-dibromobenzamide",c1c(cc(cc1Br)Br)C(=O)N,Alfa Aesar
3164,191063.0,,,3165.0,http://www.alfa.com/en/GP100W.pgm?DSSTK=H27200,128.0,3-(methylthio)benzoic acid,CSc1cccc(c1)C(=O)O,Alfa Aesar
5094,15894583.0,,,5095.0,http://www.alfa.com/en/GP100W.pgm?DSSTK=H31560,44.0,"4-fluoro-2,3-dimethylaniline",Cc1c(c(ccc1N)F)C,Alfa Aesar
26000,10438191.0,,,26001.0,http://www.srcinc.com/what-we-do/product.aspx?id=133,226.5,"1(2h)-pyrimidinecarboxamide, 5-fluoro-3,4-dihydr",O=C1NC(=O)C(F)=CN1C(=O)N(C)C,PHYSPROP
12715,88264.0,,,12716.0,http://dx.doi.org/10.1021/ci0500132,140.0,"p-(2,2,4-Trimethyl-4-chromanyl)phenol",Oc1ccc(cc1)C1(C)CC(Oc2ccccc21)(C)C,Karthikeyan M.; Glen R.C.; Bender A. General melting point prediction based on a diverse compound dataset and artificial neural networks. J. Chem. Inf. Model.; 2005; 45(3); 581-4298
26486,13839012.0,,,26487.0,http://www.srcinc.com/what-we-do/product.aspx?id=133,59.0,2-phenylphenol,Oc2ccccc2c1ccccc1,PHYSPROP
13542,56234.0,,,13543.0,http://de.wikipedia.org/wiki/Beilsteins_Handbuch_der_Organischen_Chemie,73.0,p-vinylphenol,C=Cc1ccc(O)cc1,Beilstein F. K.; Beilsteins Handbuch der Organischen Chemie. Springer; Berlin; 1972.
21336,6042.0,,,21337.0,http://www.srcinc.com/what-we-do/product.aspx?id=133,-30.41,"1,1,1-trichloroethane",CC(Cl)(Cl)Cl,PHYSPROP
12478,379360.0,,,12479.0,http://dx.doi.org/10.1021/ci0500132,56.0,4-methyl-5-phenylpentanoic acid,O=C(O)CCC(C)Cc1ccccc1,Karthikeyan M.; Glen R.C.; Bender A. General melting point prediction based on a diverse compound dataset and artificial neural networks. J. Chem. Inf. Model.; 2005; 45(3); 581-4061
13248,6164.0,,,13249.0,http://www.amazon.com/dp/B002IYRJWI,50.0,"2,2-dimethyl-1-propanol",CC(C)(C)CO,American Petroleum Institute. Research Project 44; Selected Values of Properties of Hydrocarbons and Related Compounds. Texas A & M University; College Station; TX; 1973.
16093,7706.0,,,16094.0,http://msds.chem.ox.ac.uk/,-95.0,Propyl acetate,CC(=O)OCCC,academic website
4103,2568901.0,,,4104.0,http://www.alfa.com/en/GP100W.pgm?DSSTK=B22623,58.0,"3-methylcyclohexane-1,2-dione",CC1CCCC(=O)C1=O,Alfa Aesar
10467,2035589.0,,,10468.0,http://dx.doi.org/10.1021/ci0500132,287.0,"diethyl 3,4-bis[(phenylcarbonyl)amino]thieno[2,3-b]thiophene-2,5-dicarboxylate",s1c2sc(c(NC(=O)c3ccccc3)c2c(NC(=O)c2ccccc2)c1C(=O)OCC)C(=O)OCC,Karthikeyan M.; Glen R.C.; Bender A. General melting point prediction based on a diverse compound dataset and artificial neural networks. J. Chem. Inf. Model.; 2005; 45(3); 581-2050
14085,506846.0,,,14086.0,http://de.wikipedia.org/wiki/Beilsteins_Handbuch_der_Organischen_Chemie,36.0,methyl_p-vinylbenzoate,COC(=O)c1ccc(cc1)C=C,Beilstein F. K.; Beilsteins Handbuch der Organischen Chemie. Springer; Berlin; 1972.
24296,77979.0,,,24297.0,http://www.srcinc.com/what-we-do/product.aspx?id=133,95.0,me (1-(4-bromo)phenylsulfonyl) cyclobutane carbo,COC(=O)C1(CCC1)S(=O)(=O)c2ccc(Br)cc2,PHYSPROP
6672,553689.0,,,6673.0,http://www.alfa.com/en/GP100W.pgm?DSSTK=L04178,90.0,citraconic acid,C/C(=C/C(=O)O)/C(=O)O,Alfa Aesar
3829,197691.0,,,3830.0,http://www.alfa.com/en/GP100W.pgm?DSSTK=A13480,57.0,3-chloro-6-methylpyridazine,Cc1ccc(nn1)Cl,Alfa Aesar
21522,5161.0,,,21523.0,http://www.srcinc.com/what-we-do/product.aspx?id=133,62.5,suloctidil,CC(C)Sc1ccc(cc1)C(O)C(C)NCCCCCCCC,PHYSPROP
766,6256.0,,,767.0,http://www.alfa.com/en/GP100W.pgm?DSSTK=B24324,190.0,"1,1,1-tris(hydroxymethyl)ethane",CC(CO)(CO)CO,Alfa Aesar
26223,10443471.0,,,26224.0,http://www.srcinc.com/what-we-do/product.aspx?id=133,205.5,"1-(3,4-dimethoxy),2-dibenzoyl-1-tert-butylhydraz",COc1cc(ccc1OC)C(=O)N(NC(=O)c2ccccc2)C(C)(C)C,PHYSPROP
2358,3805331.0,,,2359.0,http://www.alfa.com/en/GP100W.pgm?DSSTK=L12685,61.0,2-chloro-4-nitrophenyl isocyanate,c1cc(c(cc1[N+](=O)[O-])Cl)N=C=O,Alfa Aesar
4376,2058140.0,,,4377.0,http://www.alfa.com/en/GP100W.pgm?DSSTK=B24026,52.0,4-(trifluoromethylthio)benzyl alcohol,c1cc(ccc1CO)SC(F)(F)F,Alfa Aesar
18460,14755.0,,,18461.0,http://www.srcinc.com/what-we-do/product.aspx?id=133,-95.0,isobutylcyclohexane,CC(C)CC1CCCCC1,PHYSPROP
9576,4645696.0,,,9577.0,http://dx.doi.org/10.1021/ci0500132,185.0,(1E)-N'-methyl-2-(2-methylhydrazino)-2-thioxoethanehydrazonamide,SC(=NNC)C(N)=NNC,Karthikeyan M.; Glen R.C.; Bender A. General melting point prediction based on a diverse compound dataset and artificial neural networks. J. Chem. Inf. Model.; 2005; 45(3); 581-1159
19892,9546.0,,,19893.0,http://www.srcinc.com/what-we-do/product.aspx?id=133,196.5,4-thiazolidinecarboxylic acid,O=C(O)C1CSCN1,PHYSPROP
11598,2030950.0,,,11599.0,http://dx.doi.org/10.1021/ci0500132,78.0,"3-cyclohexylheptane-3,4-diol",OC(CCC)C(O)(CC)C1CCCCC1,Karthikeyan M.; Glen R.C.; Bender A. General melting point prediction based on a diverse compound dataset and artificial neural networks. J. Chem. Inf. Model.; 2005; 45(3); 581-3181
28434,971.0,,,28435.0,http://www.sigmaaldrich.com/united-states.html,41.0,phenol,c1ccc(cc1)O,Sigma-Aldrich
11375,2031830.0,x,mixture - AL,11376.0,http://dx.doi.org/10.1021/ci0500132,139.0,"6-(1-hydroxy-2-methylpropyl)-2,2,6-trimethyltetrahydro-2H-pyran-3-carboxylic acid - 1-benzylthiourea (1:1)",S=C(N)NCc1ccccc1.O=C(O)C1CCC(OC1(C)C)(C)C(O)C(C)C,Karthikeyan M.; Glen R.C.; Bender A. General melting point prediction based on a diverse compound dataset and artificial neural networks. J. Chem. Inf. Model.; 2005; 45(3); 581-2958
12902,15105.0,,,12903.0,http://dx.doi.org/10.1021/ci0500132,94.0,"3,4,5-trimethoxybenzonitrile",O(C)c1cc(C#N)cc(OC)c1OC,Karthikeyan M.; Glen R.C.; Bender A. General melting point prediction based on a diverse compound dataset and artificial neural networks. J. Chem. Inf. Model.; 2005; 45(3); 581-4485
15687,553448.0,,,15688.0,http://msds.chem.ox.ac.uk/,-27.0,"Cycloocta-1,3,5,7-tetraene",C1=CC=CC=CC=C1,academic website
7831,63285.0,,,7832.0,http://www.alfa.com/en/GP100W.pgm?DSSTK=A11866,174.0,"N,N'-diacetylethylenediamine",CC(=O)NCCNC(=O)C,Alfa Aesar
14934,8177.0,,,14935.0,http://msds.chem.ox.ac.uk/,205.0,"1,3,5-Trinitro-1,3,5-triazinane",O=[N+]([O-])N1CN(CN(C1)[N+]([O-])=O)[N+]([O-])=O,academic website
9634,4645499.0,,,9635.0,http://dx.doi.org/10.1021/ci0500132,116.0,3-Furan-2-yl-2-[4-(4-methoxy-phenyl)-thiazol-2-yl]-acrylonitrile,s1cc([nH0]c1C(C#N)=Cc1occc1)c1ccc(OC)cc1,Karthikeyan M.; Glen R.C.; Bender A. General melting point prediction based on a diverse compound dataset and artificial neural networks. J. Chem. Inf. Model.; 2005; 45(3); 581-1217
2071,89352.0,,,2072.0,http://www.alfa.com/en/GP100W.pgm?DSSTK=L13434,54.0,2-benzylidenecyclohexanone,c1ccc(cc1)C=C2CCCCC2=O,Alfa Aesar
144,10541.0,,,145.0,http://www.alfa.com/en/GP100W.pgm?DSSTK=A12977,22.0,1-iodohexadecane,CCCCCCCCCCCCCCCCI,Alfa Aesar
13614,13835557.0,,,13615.0,http://www.amazon.com/dp/B003XEQTLE,134.0,"1,2,3-trihydroxybenzene",Oc1cccc(O)c1O,Aldrich Chemical Company; Aldrich Catalog-Handbook of Fine Chemicals; Milwaukee; WI; 1984.
10820,2034122.0,,,10821.0,http://dx.doi.org/10.1021/ci0500132,69.0,3-methyl-1H-inden-1-ol,OC1C=C(C)c2ccccc21,Karthikeyan M.; Glen R.C.; Bender A. General melting point prediction based on a diverse compound dataset and artificial neural networks. J. Chem. Inf. Model.; 2005; 45(3); 581-2403
4879,6713.0,,,4880.0,http://www.alfa.com/en/GP100W.pgm?DSSTK=A18143,116.0,4-chloro-2-nitroaniline,c1cc(c(cc1Cl)[N+](=O)[O-])N,Alfa Aesar
5864,2715.0,,,5865.0,http://www.alfa.com/en/GP100W.pgm?DSSTK=B22856,123.0,5-chloro-8-hydroxyquinoline,c1cc2c(ccc(c2nc1)O)Cl,Alfa Aesar
27586,13839128.0,,,27587.0,http://www.amazon.com/gp/product/0849304865/,74.8,"2,5-dimethylphenol",Cc1cc(O)c(C)cc1,CRC Handbook of Chemistry and Physics
15652,14753.0,,,15653.0,http://msds.chem.ox.ac.uk/,-75.0,Butylcyclohexane,CCCCC1CCCCC1,academic website
10032,4279866.0,,,10033.0,http://dx.doi.org/10.1021/ci0500132,287.0,"1-methyl-2,3,4,4a,9,9a-hexahydro-1H-beta-carboline-3-carboxylic acid",O=C(O)C1NC(C)C2Nc3ccccc3C2C1,Karthikeyan M.; Glen R.C.; Bender A. General melting point prediction based on a diverse compound dataset and artificial neural networks. J. Chem. Inf. Model.; 2005; 45(3); 581-1615
15768,102836.0,,,15769.0,http://msds.chem.ox.ac.uk/,150.0,Dodecyl 4-O-alpha-D-glucopyranosyl-beta-D-glucopyranoside,O[C@@H]2[C@@H](O)[C@H](O)[C@@H](CO)O[C@@H]2O[C@@H]1[C@@H](CO)O[C@@H](OCCCCCCCCCCCC)[C@H](O)[C@H]1O,academic website
2883,3502471.0,,,2884.0,http://www.alfa.com/en/GP100W.pgm?DSSTK=L18715,83.0,2-methyl-4-nitrophenyl isocyanate,Cc1cc(ccc1N=C=O)[N+](=O)[O-],Alfa Aesar
12511,299622.0,,,12512.0,http://dx.doi.org/10.1021/ci0500132,156.0,"5-[2-(4-chlorophenyl)hydrazinylidene]-2,2-dimethyl-1,3-dioxane-4,6-dione",Clc1ccc(NN=C2C(=O)OC(OC2=O)(C)C)cc1,Karthikeyan M.; Glen R.C.; Bender A. General melting point prediction based on a diverse compound dataset and artificial neural networks. J. Chem. Inf. Model.; 2005; 45(3); 581-4094
14545,7917.0,,,14546.0,http://www.amazon.com/dp/B003XEQTLE,40.0,1-tetradecanol,CCCCCCCCCCCCCCO,Aldrich Chemical Company; Aldrich Catalog-Handbook of Fine Chemicals; Milwaukee; WI; 1984.
10541,2035419.0,,,10542.0,http://dx.doi.org/10.1021/ci0500132,235.0,"5-{[5-(2-methoxyphenyl)furan-2-yl]methylidene}-2-thioxodihydropyrimidine-4,6(1H,5H)-dione",S=C1NC(=O)C(=Cc2oc(cc2)c2ccccc2OC)C(=O)N1,Karthikeyan M.; Glen R.C.; Bender A. General melting point prediction based on a diverse compound dataset and artificial neural networks. J. Chem. Inf. Model.; 2005; 45(3); 581-2124
18705,13289.0,,,18706.0,http://www.srcinc.com/what-we-do/product.aspx?id=133,60.0,"benzenepropanoic acid, .beta.,.beta.-dimethyl-",O=C(O)CC(C)(C)c1ccccc1,PHYSPROP
26542,13854808.0,,,26543.0,http://www.srcinc.com/what-we-do/product.aspx?id=133,-113.2,"1,1-dimethoxyethane",CC(OC)OC,PHYSPROP
10259,2036652.0,,,10260.0,http://dx.doi.org/10.1021/ci0500132,135.0,"isoxazolo[5,4-b]pyridine, 3-bromo-",Brc1[nH0]oc2[nH0]cccc21,Karthikeyan M.; Glen R.C.; Bender A. General melting point prediction based on a diverse compound dataset and artificial neural networks. J. Chem. Inf. Model.; 2005; 45(3); 581-1842
1467,9071.0,,,1468.0,http://www.alfa.com/en/GP100W.pgm?DSSTK=A16154,-26.0,"2,4-dichlorobenzotrifluoride",c1cc(c(cc1Cl)Cl)C(F)(F)F,Alfa Aesar
3311,510413.0,,,3312.0,http://www.alfa.com/en/GP100W.pgm?DSSTK=A15600,50.0,"3,4-difluorobenzonitrile",c1cc(c(cc1C#N)F)F,Alfa Aesar
5545,237442.0,,,5546.0,http://www.alfa.com/en/GP100W.pgm?DSSTK=L20197,78.0,"4-phenyl-1,2,3-thiadiazole",c1ccc(cc1)c2csnn2,Alfa Aesar
4933,73608.0,,,4934.0,http://www.alfa.com/en/GP100W.pgm?DSSTK=B25543,113.0,4-chloro-4'-hydroxybutyrophenone,c1cc(ccc1C(=O)CCCCl)O,Alfa Aesar
16849,6857.0,,,16850.0,http://www.drugbank.ca/drugs/DB02428,156.0,Quinaldic Acid,O=C(O)c1ccc2ccccc2n1,DrugBank
20382,7855.0,,,20383.0,http://www.srcinc.com/what-we-do/product.aspx?id=133,-32.0,bis(2-chloroethoxy)methane,ClCCOCOCCCl,PHYSPROP
15131,13835604.0,,,15132.0,http://msds.chem.ox.ac.uk/,28.0,"2,2'-Iminodiethanol",OCCNCCO,academic website
6286,62944.0,,,6287.0,http://www.alfa.com/en/GP100W.pgm?DSSTK=L01092,104.0,9-chloroanthracene,c1ccc2c(c1)cc3ccccc3c2Cl,Alfa Aesar
8536,6652.0,,,8537.0,http://www.alfa.com/en/GP100W.pgm?DSSTK=A15712,139.0,thiophene-3-carboxylic acid,c1cscc1C(=O)O,Alfa Aesar
25628,4447573.0,,,25629.0,http://www.srcinc.com/what-we-do/product.aspx?id=133,229.0,"2,4,6,8-nonatetraenoic acid, 9-(4-methoxy-2,3,6-",Cc1c(C)c(/C=CC(C)=CC=CC(C)=CC(=O)O)c(C)cc1OC,PHYSPROP
2265,2053751.0,,,2266.0,http://www.alfa.com/en/GP100W.pgm?DSSTK=H51867,-10.0,2-chloro-1-methylimidazole,Cn1ccnc1Cl,Alfa Aesar
20644,7313.0,,,20645.0,http://www.srcinc.com/what-we-do/product.aspx?id=133,150.0,"n,n'-diphenylguanidine",N=C(Nc1ccccc1)Nc2ccccc2,PHYSPROP
14651,11588.0,,,14652.0,http://www.amazon.com/dp/B003XEQTLE,273.0,p-iodobenzoic_acid,OC(=O)c1ccc(I)cc1,Aldrich Chemical Company; Aldrich Catalog-Handbook of Fine Chemicals; Milwaukee; WI; 1984.
5568,10988.0,,,5569.0,http://www.alfa.com/en/GP100W.pgm?DSSTK=A14698,54.0,4-pyridinemethanol,c1cnccc1CO,Alfa Aesar
4580,5373889.0,,,4581.0,http://www.alfa.com/en/GP100W.pgm?DSSTK=L17868,94.0,4-amino-3-methylbenzonitrile,Cc1cc(ccc1N)C#N,Alfa Aesar
2632,128446.0,,,2633.0,http://www.alfa.com/en/GP100W.pgm?DSSTK=B20361,27.0,2-fluoro-6-(trifluoromethyl)benzonitrile,c1cc(c(c(c1)F)C#N)C(F)(F)F,Alfa Aesar
23332,62281.0,,,23333.0,http://www.srcinc.com/what-we-do/product.aspx?id=133,34.0,"1,2-benzenedicarboxylic acid, bis(2-ethoxyethyl)",O=C(OCCOCC)c1ccccc1C(=O)OCCOCC,PHYSPROP
15366,108495.0,,,15367.0,http://msds.chem.ox.ac.uk/,230.0,"3-{[1,3-Dihydroxy-2-(hydroxymethyl)propan-2-yl]amino}propane-1-sulfonic acid",O=S(=O)(O)CCCNC(CO)(CO)CO,academic website
14337,66642.0,,,14338.0,http://www.amazon.com/dp/B003XEQTLE,80.0,2-chloro-4-dimethylaminobenzaldehyde,O=Cc1ccc(cc1Cl)N(C)C,Aldrich Chemical Company; Aldrich Catalog-Handbook of Fine Chemicals; Milwaukee; WI; 1984.
22070,2627.0,,,22071.0,http://www.srcinc.com/what-we-do/product.aspx?id=133,41.0,chlorpropham,Clc1cc(NC(=O)OC(C)C)ccc1,PHYSPROP