,csid,donotuse,donotusebecause,key,link,mpC,name,smiles,source
12817,62265.0,,,12818.0,http://dx.doi.org/10.1021/ci0500132,212.0,3-nitrophthalic acid,O=[N+]([O-])c1cccc(c1C(=O)O)C(=O)O,Karthikeyan M.; Glen R.C.; Bender A. General melting point prediction based on a diverse compound dataset and artificial neural networks. J. Chem. Inf. Model.; 2005; 45(3); 581-4400
16459,4447447.0,,,16460.0,http://www.drugbank.ca/drugs/DB00318,155.0,Codeine,COc5ccc1C[C@H]2N(C)CC[C@@]34c1c5O[C@H]4[C@@H](O)C=C[C@@H]23,DrugBank
24211,75561.0,,,24212.0,http://www.srcinc.com/what-we-do/product.aspx?id=133,306.0,"2,5-dichloro-terephthalic acid",OC(=O)c1cc(Cl)c(cc1Cl)C(=O)O,PHYSPROP
28381,33984.0,,,28382.0,http://dx.doi.org/10.1016/j.chemosphere.2013.10.095,79.0,PCB-138,Clc2ccc(c1cc(Cl)c(Cl)cc1Cl)c(Cl)c2Cl,Abraham M.H. and Acree Jr. W.E. The solubility of liquid and solid compounds in dry octan-1-ol. Chemosphere (2013)
5252,21242193.0,,,5253.0,http://www.alfa.com/en/GP100W.pgm?DSSTK=B25666,97.0,4-iodo-2-nitroanisole,COc1ccc(cc1[N+](=O)[O-])I,Alfa Aesar
21571,4877.0,,,21572.0,http://www.srcinc.com/what-we-do/product.aspx?id=133,32.0,bioresmethrin,O=C(OCc2cc(Cc1ccccc1)oc2)C3C(/C=C(C)C)C3(C)C,PHYSPROP
26023,10438752.0,,,26024.0,http://www.srcinc.com/what-we-do/product.aspx?id=133,110.0,"benzenesulfonamide, 3-fluoro-4-[(2-hydroxyethyl)",NS(=O)(=O)c1ccc(SCCO)c(F)c1,PHYSPROP
22644,36899.0,,,22645.0,http://www.srcinc.com/what-we-do/product.aspx?id=133,141.0,pinazepam,Clc1ccc2c(c1)C(=NCC(=O)N2CC#C)c3ccccc3,PHYSPROP
3102,283057.0,,,3103.0,http://www.alfa.com/en/GP100W.pgm?DSSTK=B24675,115.0,3-(2-methyl-4-nitro-1h-imidazol-1-yl)propionitrile,Cc1nc(cn1CCC#N)[N+](=O)[O-],Alfa Aesar
5308,516897.0,,,5309.0,http://www.alfa.com/en/GP100W.pgm?DSSTK=B25720,197.0,4-methoxy-2-quinolinecarboxylic acid,COc1cc(nc2c1cccc2)C(=O)O,Alfa Aesar
19278,11390.0,,,19279.0,http://www.srcinc.com/what-we-do/product.aspx?id=133,58.3,"1,2-dino2 4-methyl benzene",O=[N+]([O-])c1cc(C)ccc1[N+]([O-])=O,PHYSPROP
984,525021.0,,,985.0,http://www.alfa.com/en/GP100W.pgm?DSSTK=B22601,60.0,2-(4-n-hexyloxyphenyl)-5-n-octylpyrimidine,CCCCCCCCc1cnc(nc1)c2ccc(cc2)OCCCCCC,Alfa Aesar
3293,27294.0,,,3294.0,http://www.alfa.com/en/GP100W.pgm?DSSTK=L11701,27.0,"3,4-dichlorobenzyl isothiocyanate",c1cc(c(cc1CN=C=S)Cl)Cl,Alfa Aesar
20662,7285.0,,,20663.0,http://www.srcinc.com/what-we-do/product.aspx?id=133,144.0,"aniline, p-((p-nitrophenyl)thio)- (6ci,7ci,8ci)",[O-][N+](=O)c1ccc(cc1)Sc2ccc(N)cc2,PHYSPROP
3856,62573.0,,,3857.0,http://www.alfa.com/en/GP100W.pgm?DSSTK=B25698,-32.0,3-chloropropionyl chloride,C(CCl)C(=O)Cl,Alfa Aesar
5320,60007.0,,,5321.0,http://www.alfa.com/en/GP100W.pgm?DSSTK=A10930,188.0,4-methoxy-3-nitrobenzoic acid,COc1ccc(cc1[N+](=O)[O-])C(=O)O,Alfa Aesar
11289,2032132.0,,,11290.0,http://dx.doi.org/10.1021/ci0500132,75.0,3-[hydroxy(phenyl)amino]-2-phenylprop-2-enoic acid,O=C(O)C(=CN(O)c1ccccc1)c1ccccc1,Karthikeyan M.; Glen R.C.; Bender A. General melting point prediction based on a diverse compound dataset and artificial neural networks. J. Chem. Inf. Model.; 2005; 45(3); 581-2872
24812,147574.0,,,24813.0,http://www.srcinc.com/what-we-do/product.aspx?id=133,158.1,"phenytoin,3-ch2oc(=o)ch3",O=C(C)OCN1C(=O)C(NC1=O)(c2ccccc2)c3ccccc3,PHYSPROP
17439,29098.0,,,17440.0,http://www.srcinc.com/what-we-do/product.aspx?id=133,90.0,oxanamide,O=C(N)C1(CC)OC1CCC,PHYSPROP
12065,2029306.0,,,12066.0,http://dx.doi.org/10.1021/ci0500132,215.0,"5-[(4-hydroxy-3-methoxyphenyl)methylidene]-3-{[(3-nitrophenyl)amino]methyl}-2-thioxo-1,3-thiazolidin-4-one",S=C1SC(=Cc2ccc(O)c(OC)c2)C(=O)N1CNc1cccc([N+](=O)[O-])c1,Karthikeyan M.; Glen R.C.; Bender A. General melting point prediction based on a diverse compound dataset and artificial neural networks. J. Chem. Inf. Model.; 2005; 45(3); 581-3648
24110,71784.0,,,24111.0,http://www.srcinc.com/what-we-do/product.aspx?id=133,46.5,"pyrimidine, 2,4-dichloro-6-methyl-",Clc1cc(C)nc(Cl)n1,PHYSPROP
18215,16074.0,,,18216.0,http://www.srcinc.com/what-we-do/product.aspx?id=133,-85.0,"1,6-heptadiene",C=CCCCC=C,PHYSPROP
16445,8325.0,,,16446.0,http://www.drugbank.ca/drugs/DB01667,300.0,8-Azaguanine,OC=1NC(N)=NC2=NN=NC=12,DrugBank
13386,7234.0,,,13387.0,http://www.amazon.com/dp/B003XEQTLE,-57.0,n-methylaniline,CNc1ccccc1,Aldrich Chemical Company; Aldrich Catalog-Handbook of Fine Chemicals; Milwaukee; WI; 1984.
10443,2036145.0,,,10444.0,http://dx.doi.org/10.1021/ci0500132,230.0,"7-(4-bromophenyl)-9-[(4-bromophenyl)carbonyl]-9,10-dihydro-6H-chromeno[3',4':5,6]pyrano[2,3-b]pyrrole-6,8(7H)-dione",Brc1ccc(cc1)C(=O)C1NC=2OC=3c4ccccc4OC(=O)C=3C(C=2C1=O)c1ccc(Br)cc1,Karthikeyan M.; Glen R.C.; Bender A. General melting point prediction based on a diverse compound dataset and artificial neural networks. J. Chem. Inf. Model.; 2005; 45(3); 581-2026
20595,7434.0,,,20596.0,http://www.srcinc.com/what-we-do/product.aspx?id=133,-70.0,2-ethyl-1-hexanol,CCC(CCCC)CO,PHYSPROP
385,70730.0,,,386.0,http://www.alfa.com/en/GP100W.pgm?DSSTK=B21670,86.0,15-hydroxypentadecanoic acid,C(CCCCCCCO)CCCCCCC(=O)O,Alfa Aesar
25301,556587.0,,,25302.0,http://www.srcinc.com/what-we-do/product.aspx?id=133,214.5,"benzene, 1,1'-(1,2-ethenediyl)bis[4-methoxy-",COc2ccc(/C=C/c1ccc(OC)cc1)cc2,PHYSPROP
20166,8365.0,,,20167.0,http://www.srcinc.com/what-we-do/product.aspx?id=133,98.0,"1,3-diphenyl-1-triazene",N(=NNc1ccccc1)c2ccccc2,PHYSPROP
18355,15308.0,,,18356.0,http://www.srcinc.com/what-we-do/product.aspx?id=133,199.5,medronic acid,O=P(O)(O)CP(=O)(O)O,PHYSPROP
18504,14556.0,,,18505.0,http://www.srcinc.com/what-we-do/product.aspx?id=133,23.0,"isonicotinic acid, ethyl ester",O=C(OCC)c1ccncc1,PHYSPROP
3808,3527917.0,,,3809.0,http://www.alfa.com/en/GP100W.pgm?DSSTK=L18509,109.0,3-chloro-4-methoxybenzonitrile,COc1ccc(cc1Cl)C#N,Alfa Aesar
2756,297628.0,,,2757.0,http://www.alfa.com/en/GP100W.pgm?DSSTK=H51862,81.0,2-iodo-1-methylimidazole,Cn1ccnc1I,Alfa Aesar
10577,2034902.0,,,10578.0,http://dx.doi.org/10.1021/ci0500132,173.0,"3-[(4-chlorophenyl)carbonyl]-5-(2-nitrophenyl)-3aH-pyrrolo[3,4-d]isoxazole-4,6(5H,6aH)-dione",Clc1ccc(cc1)C(=O)C1=NOC2C(=O)N(C(=O)C12)c1ccccc1[N+](=O)[O-],Karthikeyan M.; Glen R.C.; Bender A. General melting point prediction based on a diverse compound dataset and artificial neural networks. J. Chem. Inf. Model.; 2005; 45(3); 581-2160
26501,13839441.0,,,26502.0,http://www.srcinc.com/what-we-do/product.aspx?id=133,-18.0,"1,5-pentanediol",OCCCCCO,PHYSPROP
14204,73125.0,,,14205.0,http://www.amazon.com/dp/B003XEQTLE,64.0,"3,5-dichlorobenzonitrile",Clc1cc(C#N)cc(Cl)c1,Aldrich Chemical Company; Aldrich Catalog-Handbook of Fine Chemicals; Milwaukee; WI; 1984.
10562,2035026.0,,,10563.0,http://dx.doi.org/10.1021/ci0500132,57.0,1-phenylazepan-2-one,O=C1N(CCCCC1)c1ccccc1,Karthikeyan M.; Glen R.C.; Bender A. General melting point prediction based on a diverse compound dataset and artificial neural networks. J. Chem. Inf. Model.; 2005; 45(3); 581-2145
4915,23485.0,,,4916.0,http://www.alfa.com/en/GP100W.pgm?DSSTK=A12282,44.0,4-chloro-3-nitroanisole,COc1ccc(c(c1)[N+](=O)[O-])Cl,Alfa Aesar
15839,13836549.0,,,15840.0,http://msds.chem.ox.ac.uk/,3.9,Hexafluorobenzene,Fc1c(F)c(F)c(F)c(F)c1F,academic website
17139,5554.0,,,17140.0,http://dx.doi.org/10.1021/ci700307p,176.0,estradiol,Oc3cc4CC[C@@H]1[C@H](CC[C@]2(C)[C@@H](O)CC[C@@H]12)c4cc3,Hughes LD; Palmer DS; Nigsch F and Mitchell JBO. 2008 Why are some properties more difficult to predict than others? A study of QSPR models of solubility; melting point and LogP. J. Chem. Inf. Model. 2008. 48 (1). pp 220?287
6101,4450184.0,,,6102.0,http://www.alfa.com/en/GP100W.pgm?DSSTK=H25825,152.0,6-chloro-2-fluoropurine,c1[nH]c2c(n1)c(nc(n2)F)Cl,Alfa Aesar
15594,236.0,,,15595.0,http://msds.chem.ox.ac.uk/,5.5,Benzene,c1ccccc1,academic website
28112,6592.0,,,28113.0,http://dx.doi.org/10.1080/10629360701430124,116.0,fluorene,c1ccc-2c(c1)Cc3c2cccc3,RAEVSKY OA; PERLOVICH GL and SCHAPER K-J. Physicochemical properties/descriptors governing the solubility and partitioning of chemicals in water-solvent-gas systems. Part 2. Solubility in 1-octanol. SAR and QSAR in Environmental Research Vol. 18 Nos. 5–6 July–September 2007 543–578
9874,4644559.0,x,salt - AL,9875.0,http://dx.doi.org/10.1021/ci0500132,67.0,(2E)-3-[3-bromo-5-(carboxyethynyl)phenyl]prop-2-enoic acid dihydrate,Brc1cc(C#CC(=O)O)cc(c1)C=CC(=O)O.O.O,Karthikeyan M.; Glen R.C.; Bender A. General melting point prediction based on a diverse compound dataset and artificial neural networks. J. Chem. Inf. Model.; 2005; 45(3); 581-1457
12710,89131.0,,,12711.0,http://dx.doi.org/10.1021/ci0500132,33.0,"2,2'-Ethane-1,2-diyldianiline",Nc1ccccc1CCc1ccccc1N,Karthikeyan M.; Glen R.C.; Bender A. General melting point prediction based on a diverse compound dataset and artificial neural networks. J. Chem. Inf. Model.; 2005; 45(3); 581-4293
3367,82141.0,,,3368.0,http://www.alfa.com/en/GP100W.pgm?DSSTK=L13360,-70.0,"3,5,5-trimethylhexanoic acid",CC(CC(=O)O)CC(C)(C)C,Alfa Aesar
14784,21105870.0,,,14785.0,http://msds.chem.ox.ac.uk/,30.0,(2E)-3-Phenylprop-2-en-1-ol,OCC=Cc1ccccc1,academic website
15374,7018.0,,,15375.0,http://msds.chem.ox.ac.uk/,-40.0,"3-Chloropropane-1,2-diol",OCC(O)CCl,academic website
4007,2016111.0,,,4008.0,http://www.alfa.com/en/GP100W.pgm?DSSTK=L19061,209.0,3-hydroxybenzeneboronic acid,B(c1cccc(c1)O)(O)O,Alfa Aesar
16855,16743887.0,,,16856.0,http://www.drugbank.ca/drugs/DB04501,158.5,Camphane,CC2(C)[C@H]1CC[C@]2(C)CC1,DrugBank
15782,6336.0,,,15783.0,http://msds.chem.ox.ac.uk/,0.1,Ethaneperoxoic acid,CC(=O)OO,academic website
6689,7666.0,,,6690.0,http://www.alfa.com/en/GP100W.pgm?DSSTK=L03442,147.0,cyanuric chloride,c1(nc(nc(n1)Cl)Cl)Cl,Alfa Aesar
5579,110108.0,,,5580.0,http://www.alfa.com/en/GP100W.pgm?DSSTK=A13224,129.0,4-tert-butylbenzhydrazide,CC(C)(C)c1ccc(cc1)C(=O)NN,Alfa Aesar
7835,8463.0,,,7836.0,http://www.alfa.com/en/GP100W.pgm?DSSTK=L03540,24.0,"N,N'-dibenzylethylenediamine",c1ccc(cc1)CNCCNCc2ccccc2,Alfa Aesar
10558,2035162.0,,,10559.0,http://dx.doi.org/10.1021/ci0500132,143.0,"4-ethyl-8-methoxy-3,3-dimethyl-3,4,5,6-tetrahydro-2H-benzo[h]chromen-2-one",O=C1OC=2c3ccc(OC)cc3CCC=2C(CC)C1(C)C,Karthikeyan M.; Glen R.C.; Bender A. General melting point prediction based on a diverse compound dataset and artificial neural networks. J. Chem. Inf. Model.; 2005; 45(3); 581-2141
22647,36981.0,,,22648.0,http://www.srcinc.com/what-we-do/product.aspx?id=133,83.0,"2,2',3,4,4',5',6-heptachlorobiphenyl",Clc1cc(Cl)c(Cl)c(Cl)c1c2cc(Cl)c(Cl)cc2Cl,PHYSPROP
7761,1267539.0,,,7762.0,http://www.alfa.com/en/GP100W.pgm?DSSTK=B24759,144.0,N-(2-methoxyphenyl)maleamic acid,COc1ccccc1NC(=O)/C=CC(=O)O,Alfa Aesar
16238,4341.0,,,16239.0,http://www.drugbank.ca/drugs/DB00393,125.0,Nimodipine,CC=1NC(C)=C(C(C=1C(=O)OC(C)C)c2cccc(c2)[N+]([O-])=O)C(=O)OCCOC,DrugBank
3686,599786.0,,,3687.0,http://www.alfa.com/en/GP100W.pgm?DSSTK=A14526,194.0,3-bromo-4-fluorocinnamic acid,c1cc(c(cc1/C=C/C(=O)O)Br)F,Alfa Aesar
20414,7799.0,,,20415.0,http://www.srcinc.com/what-we-do/product.aspx?id=133,16.9,butyl palmitate,O=C(CCCCCCCCCCCCCCC)OCCCC,PHYSPROP
2200,21111817.0,,,2201.0,http://www.alfa.com/en/GP100W.pgm?DSSTK=A15065,20.0,2-bromobenzaldehyde,c1ccc(c(c1)C=O)Br,Alfa Aesar
7602,63956.0,,,7603.0,http://www.alfa.com/en/GP100W.pgm?DSSTK=L08365,67.0,methyl 4-cyanobenzoate,COC(=O)c1ccc(cc1)C#N,Alfa Aesar
14760,15803.0,,,14761.0,http://msds.chem.ox.ac.uk/,42.0,"(1R,2S,5R)-2-Isopropyl-5-methylcyclohexanol",CC(C)[C@@H]1CC[C@@H](C)C[C@H]1O,academic website
1841,69467.0,,,1842.0,http://www.alfa.com/en/GP100W.pgm?DSSTK=H27971,138.0,"2,7-dimethoxynaphthalene",COc1ccc2ccc(cc2c1)OC,Alfa Aesar
19217,11509.0,,,19218.0,http://www.srcinc.com/what-we-do/product.aspx?id=133,79.5,"2,4-dibromoaniline",Brc1cc(Br)c(N)cc1,PHYSPROP
27588,8528.0,,,27589.0,http://chemspider.com/8528,121.5,"2,6-diaminopyridine",c1cc(nc(c1)N)N,EPISuite-ChemSpider
8086,72710.0,,,8087.0,http://www.alfa.com/en/GP100W.pgm?DSSTK=B23319,-72.0,"N-methyl-1,3-propanediamine",CNCCCN,Alfa Aesar
10228,2097162.0,,,10229.0,http://dx.doi.org/10.1021/ci0500132,159.0,"2,5-di(2-thienyl)-7-(trifluoromethyl)pyrazolo[1,5-a]pyrimidine",s1cccc1C1=Nc2[nH0]([nH0]c(c2)c2sccc2)C(=C1)C(F)(F)F,Karthikeyan M.; Glen R.C.; Bender A. General melting point prediction based on a diverse compound dataset and artificial neural networks. J. Chem. Inf. Model.; 2005; 45(3); 581-1811
2010,68960.0,,,2011.0,http://www.alfa.com/en/GP100W.pgm?DSSTK=41495,237.0,2-amino-5-nitropyrimidine,c1c(cnc(n1)N)[N+](=O)[O-],Alfa Aesar
23666,64644.0,,,23667.0,http://www.srcinc.com/what-we-do/product.aspx?id=133,155.5,p-fluorobenzamide,O=C(N)c1ccc(F)cc1,PHYSPROP
14767,4445050.0,,,14768.0,http://msds.chem.ox.ac.uk/,97.0,"(1S,7aR)-7-[({(2R)-2,3-Dihydroxy-2-[(1S)-1-methoxyethyl]-3-methylbutanoyl}oxy)methyl]-2,3,5,7a-tetrahydro-1H-pyrrolizin-1-yl (2Z)-2-methylbut-2-enoate (non-preferred name)",CC(C)(O)[C@](O)([C@H](C)OC)C(=O)OCC1=CCN2CC[C@H](OC(=O)C(/C)=CC)[C@@H]12,academic website
19160,11613.0,,,19161.0,http://www.srcinc.com/what-we-do/product.aspx?id=133,61.0,4-nitro diphenyl ether,[O-][N+](=O)c2ccc(Oc1ccccc1)cc2,PHYSPROP
24649,100420.0,,,24650.0,http://www.srcinc.com/what-we-do/product.aspx?id=133,38.5,oxypinocamphone,CC2(O)C(=O)CC1CC2C1(C)C,PHYSPROP
27253,10619037.0,,,27254.0,http://scripts.iucr.org/cgi-bin/paper?rz2172,124.0,"Ethyl 1-(2,4-dichlorophenyl)-5-phenyl-1H-pyrazole-3-carboxylate",O=C(OCC)c2nn(c1c(Cl)cc(Cl)cc1)c(c2)c3ccccc3,IUCr
13207,557853.0,,,13208.0,http://www.amazon.com/dp/B002IYRJWI,-138.0,3-methyl-trans-2-pentene,CC=C(/C)CC,American Petroleum Institute. Research Project 44; Selected Values of Properties of Hydrocarbons and Related Compounds. Texas A & M University; College Station; TX; 1973.
18247,15823.0,,,18248.0,http://www.srcinc.com/what-we-do/product.aspx?id=133,122.0,dienochlor,ClC1(C(Cl)=C(Cl)C(Cl)=C1Cl)C2(Cl)C(Cl)=C(Cl)C(Cl)=C2Cl,PHYSPROP
24468,84430.0,,,24469.0,http://www.srcinc.com/what-we-do/product.aspx?id=133,69.4,cloquintocet-mexyl,CC(CCCCC)OC(=O)COc1ccc(Cl)c2cccnc12,PHYSPROP
18936,12201.0,,,18937.0,http://www.srcinc.com/what-we-do/product.aspx?id=133,-153.6,4-methyl-1-pentene,CC(C)CC=C,PHYSPROP
3193,2041604.0,,,3194.0,http://www.alfa.com/en/GP100W.pgm?DSSTK=H53380,48.0,3-(trimethylsilyl)propiolic acid,C[Si](C)(C)C#CC(=O)O,Alfa Aesar
7435,10304.0,,,7436.0,http://www.alfa.com/en/GP100W.pgm?DSSTK=L08698,-10.0,mandelonitrile,c1ccc(cc1)C(C#N)O,Alfa Aesar
3526,11380.0,,,3527.0,http://www.alfa.com/en/GP100W.pgm?DSSTK=A16988,171.0,"3,5-dinitrosalicylic acid",c1c(cc(c(c1C(=O)O)O)[N+](=O)[O-])[N+](=O)[O-],Alfa Aesar
5312,2055662.0,,,5313.0,http://www.alfa.com/en/GP100W.pgm?DSSTK=B23923,99.0,4-methoxy-3-(trifluoromethyl)benzonitrile,COc1ccc(cc1C(F)(F)F)C#N,Alfa Aesar
20376,7871.0,,,20377.0,http://www.srcinc.com/what-we-do/product.aspx?id=133,15.0,undecanone,CC(=O)CCCCCCCCC,PHYSPROP
25705,4513469.0,,,25706.0,http://www.srcinc.com/what-we-do/product.aspx?id=133,-63.7,"4-undecene, (e)-",CCCCCCC=CCCC,PHYSPROP
17661,23479.0,,,17662.0,http://www.srcinc.com/what-we-do/product.aspx?id=133,-46.0,borontribromide,Br[B@](Br)Br,PHYSPROP
21133,6389.0,,,21134.0,http://www.srcinc.com/what-we-do/product.aspx?id=133,40.6,"peroxide, bis(1-methyl-1-phenylethyl)",CC(C)(OOC(C)(C)c1ccccc1)c2ccccc2,PHYSPROP
28489,9014352.0,,,28490.0,http://pubs.rsc.org/en/content/articlelanding/1955/jr/jr9550002807,103.0,Pseudodiosgenin diacetate,O=C(OC[C@H](C)CCC=2O[C@H]3C[C@H]1[C@H]4[C@H](CC[C@]1(C)[C@H]3C=2C)[C@@]5(C(=C/C4)\C[C@@H](OC(=O)C)CC5)C)C,Journal of the Chemical Society
26186,10442844.0,,,26187.0,http://www.srcinc.com/what-we-do/product.aspx?id=133,225.5,"1-(3,4-dimethyl),2-dibenzoyl-1-tert-butylhydrazi",Cc1ccc(cc1C)C(=O)N(NC(=O)c2ccccc2)C(C)(C)C,PHYSPROP
18244,15829.0,,,18245.0,http://www.srcinc.com/what-we-do/product.aspx?id=133,-64.0,"styrene, 2,4-dimethyl-",Cc1cc(C)ccc1C=C,PHYSPROP
24641,98482.0,,,24642.0,http://www.srcinc.com/what-we-do/product.aspx?id=133,167.0,azo dye ra,CC(=O)OCCN(CCC#N)c1ccc(cc1)/N=N/c2nc3ccc(cc3s2)[N+]([O-])=O,PHYSPROP
13383,6967.0,,,13384.0,http://www.amazon.com/dp/B002IYRJWI,-25.0,o-xylene,Cc1ccccc1C,American Petroleum Institute. Research Project 44; Selected Values of Properties of Hydrocarbons and Related Compounds. Texas A & M University; College Station; TX; 1973.
27830,236.0,,,27831.0,http://en.wikipedia.org/wiki/Benzene,5.5,benzene,c1ccccc1,Wikipedia
21526,5149.0,,,21527.0,http://www.srcinc.com/what-we-do/product.aspx?id=133,136.5,sulfoxyphenyl pyrazolidine,O=C4C(CCS(=O)c1ccccc1)C(=O)N(c2ccccc2)N4c3ccccc3,PHYSPROP
8633,71334.0,,,8634.0,http://www.alfa.com/en/GP100W.pgm?DSSTK=B22112,118.0,trifluoromethanesulfonamide,C(F)(F)(F)S(=O)(=O)N,Alfa Aesar
16210,5641721.0,,,16211.0,http://www.drugbank.ca/drugs/DB02576,25.0,F-Loop of Vitamin B12,C[C@H](O)C[NH3+],DrugBank
19884,9565.0,,,19885.0,http://www.srcinc.com/what-we-do/product.aspx?id=133,-35.0,fluoressigsaeure-methylester,FCC(=O)OC,PHYSPROP
18113,16685.0,,,18114.0,http://www.srcinc.com/what-we-do/product.aspx?id=133,33.5,"2,4-dimethoxyaniline",Nc1ccc(cc1OC)OC,PHYSPROP
18777,12969.0,,,18778.0,http://www.srcinc.com/what-we-do/product.aspx?id=133,-140.0,"propane, 2-(ethenyloxy)-",CC(C)OC=C,PHYSPROP
10695,2034652.0,,,10696.0,http://dx.doi.org/10.1021/ci0500132,186.0,"5-(4-bromophenyl)-3-(naphthalen-2-ylcarbonyl)-3aH-pyrrolo[3,4-d]isoxazole-4,6(5H,6aH)-dione",Brc1ccc(N2C(=O)C3ON=C(C(=O)c4ccc5ccccc5c4)C3C2=O)cc1,Karthikeyan M.; Glen R.C.; Bender A. General melting point prediction based on a diverse compound dataset and artificial neural networks. J. Chem. Inf. Model.; 2005; 45(3); 581-2278
1741,455505.0,,,1742.0,http://www.alfa.com/en/GP100W.pgm?DSSTK=A15615,53.0,"2,6-dichlorobenzenesulfonyl chloride",c1cc(c(c(c1)Cl)S(=O)(=O)Cl)Cl,Alfa Aesar
8666,59020.0,,,8667.0,http://www.alfa.com/en/GP100W.pgm?DSSTK=A11062,55.0,tri-n-octylphosphine oxide,CCCCCCCCP(=O)(CCCCCCCC)CCCCCCCC,Alfa Aesar
4602,2042212.0,,,4603.0,http://www.alfa.com/en/GP100W.pgm?DSSTK=H51980,125.0,4-amino-n-boc-l-phenylalanine,CC(C)(C)OC(=O)N[C@@H](Cc1ccc(cc1)N)C(=O)O,Alfa Aesar
8358,20002741.0,,,8359.0,http://www.alfa.com/en/GP100W.pgm?DSSTK=A10771,77.0,"pyridine-3,4-dicarboxylic anhydride",c1cncc(c1C(=O)O)C(=O)OC(=O)c2cnccc2C(=O)O,Alfa Aesar
21061,6550.0,,,21062.0,http://www.srcinc.com/what-we-do/product.aspx?id=133,238.0,phthalimide,O=C1NC(=O)c2ccccc12,PHYSPROP
6806,6158.0,,,6807.0,http://www.alfa.com/en/GP100W.pgm?DSSTK=L12133,-76.0,dichlorodimethylsilane,C[Si](C)(Cl)Cl,Alfa Aesar
22187,2063.0,,,22188.0,http://www.srcinc.com/what-we-do/product.aspx?id=133,198.5,"glycine, n-(4-aminobenzoyl)-",O=C(NCC(=O)O)c1ccc(N)cc1,PHYSPROP
10044,3871837.0,,,10045.0,http://dx.doi.org/10.1021/ci0500132,202.0,"10-hydroxy-4,5-epoxyestr-1-ene-3,17-dione",O=C1C=CC2(O)C3CCC4(C)C(=O)CCC4C3CCC32OC13,Karthikeyan M.; Glen R.C.; Bender A. General melting point prediction based on a diverse compound dataset and artificial neural networks. J. Chem. Inf. Model.; 2005; 45(3); 581-1627
26699,16735867.0,,,26700.0,http://www.srcinc.com/what-we-do/product.aspx?id=133,108.5,julocrotine,CC(CC)C(=O)NC2CCC(=O)N(CCc1ccccc1)C2=O,PHYSPROP
6404,65648.0,,,6405.0,http://www.alfa.com/en/GP100W.pgm?DSSTK=A14258,220.0,bathophenanthroline,c1ccc(cc1)c2ccnc3c2ccc4c3nccc4c5ccccc5,Alfa Aesar
4321,69432.0,,,4322.0,http://www.alfa.com/en/GP100W.pgm?DSSTK=B25427,6.0,4-(methylthio)benzaldehyde,CSc1ccc(cc1)C=O,Alfa Aesar
12503,308037.0,,,12504.0,http://dx.doi.org/10.1021/ci0500132,99.0,methyl 2-(benzoylamino)benzoate,O=C(OC)c1ccccc1NC(=O)c1ccccc1,Karthikeyan M.; Glen R.C.; Bender A. General melting point prediction based on a diverse compound dataset and artificial neural networks. J. Chem. Inf. Model.; 2005; 45(3); 581-4086
2913,6726.0,,,2914.0,http://www.alfa.com/en/GP100W.pgm?DSSTK=B21717,19.0,2-methylbenzyl bromide,Cc1ccccc1CBr,Alfa Aesar
21103,6460.0,,,21104.0,http://www.srcinc.com/what-we-do/product.aspx?id=133,144.5,visnagin,COc1c3ccoc3cc2OC(C)=CC(=O)c12,PHYSPROP
6889,218854.0,,,6890.0,http://www.alfa.com/en/GP100W.pgm?DSSTK=L06715,69.0,dimethyl 3-nitrophthalate,COC(=O)c1cccc(c1C(=O)OC)[N+](=O)[O-],Alfa Aesar