,csid,donotuse,donotusebecause,key,link,mpC,name,smiles,source
4969,62538.0,,,4970.0,http://www.alfa.com/en/GP100W.pgm?DSSTK=B22858,49.0,4-chlorobenzyl bromide,c1cc(ccc1CBr)Cl,Alfa Aesar
5085,526494.0,,,5086.0,http://www.alfa.com/en/GP100W.pgm?DSSTK=B20026,136.0,4-fluoro-2-(trifluoromethyl)benzamide,c1cc(c(cc1F)C(F)(F)F)C(=O)N,Alfa Aesar
23850,67581.0,,,23851.0,http://www.srcinc.com/what-we-do/product.aspx?id=133,-3.0,"pyridine, 2-(2-phenylethyl)-",C(Cc1ccccn1)c2ccccc2,PHYSPROP
21484,5296.0,,,21485.0,http://www.srcinc.com/what-we-do/product.aspx?id=133,25.0,nikethamide,O=C(N(CC)CC)c1cccnc1,PHYSPROP
5623,1068756.0,,,5624.0,http://www.alfa.com/en/GP100W.pgm?DSSTK=A17152,278.0,5-(4-dimethylaminobenzylidene)rhodanine,CN(C)c1ccc(cc1)/C=C2/C(=O)NC(=S)S2,Alfa Aesar
13797,13848467.0,,,13798.0,http://www.amazon.com/dp/B003XEQTLE,13.0,2-phenoxyethanol,OCCOc1ccccc1,Aldrich Chemical Company; Aldrich Catalog-Handbook of Fine Chemicals; Milwaukee; WI; 1984.
10436,2036155.0,,,10437.0,http://dx.doi.org/10.1021/ci0500132,83.0,"2-{bis[(3,5-dimethyl-1H-pyrazol-1-yl)methyl]amino}ethanol",OCCN(C[nH0]1[nH0]c(C)cc1C)C[nH0]1[nH0]c(C)cc1C,Karthikeyan M.; Glen R.C.; Bender A. General melting point prediction based on a diverse compound dataset and artificial neural networks. J. Chem. Inf. Model.; 2005; 45(3); 581-2019
12938,10593.0,,,12939.0,http://dx.doi.org/10.1021/ci0500132,220.0,"10-hydroxyestra-1,4-diene-3,17-dione",O=C1C=CC2(O)C(=C1)CCC1C3CCC(=O)C3(C)CCC12,Karthikeyan M.; Glen R.C.; Bender A. General melting point prediction based on a diverse compound dataset and artificial neural networks. J. Chem. Inf. Model.; 2005; 45(3); 581-4521
10390,2036233.0,,,10391.0,http://dx.doi.org/10.1021/ci0500132,98.0,6-chloro-N-(2-methylphenyl)pyrazine-2-carboxamide,Clc1[nH0]c(c[nH0]c1)C(=O)Nc1ccccc1C,Karthikeyan M.; Glen R.C.; Bender A. General melting point prediction based on a diverse compound dataset and artificial neural networks. J. Chem. Inf. Model.; 2005; 45(3); 581-1973
10186,2795870.0,,,10187.0,http://dx.doi.org/10.1021/ci0500132,209.0,"2,4,6-trimethyl-3,5-bis[(pentopyranosylthio)methyl]benzyl 1-thiopentopyranoside",S(Cc1c(C)c(CSC2OCC(O)C(O)C2O)c(C)c(CSC2OCC(O)C(O)C2O)c1C)C1OCC(O)C(O)C1O,Karthikeyan M.; Glen R.C.; Bender A. General melting point prediction based on a diverse compound dataset and artificial neural networks. J. Chem. Inf. Model.; 2005; 45(3); 581-1769
3260,24118.0,,,3261.0,http://www.alfa.com/en/GP100W.pgm?DSSTK=B24247,77.0,"3,4,5-trimethoxyphenylacetonitrile",COc1cc(cc(c1OC)OC)CC#N,Alfa Aesar
5553,76955.0,,,5554.0,http://www.alfa.com/en/GP100W.pgm?DSSTK=L00879,164.0,4-phenylazomaleinanil,c1ccc(cc1)/N=N/c2ccc(cc2)N3C(=O)C=CC3=O,Alfa Aesar
900,5323234.0,,,901.0,http://www.alfa.com/en/GP100W.pgm?DSSTK=B25539,53.0,"(2S,5s)-2,5-hexanediol",C[C@@H](CC[C@H](C)O)O,Alfa Aesar
11541,2031141.0,x,salt,11542.0,http://dx.doi.org/10.1021/ci0500132,234.0,"pyrido[2,3-g]quinoline hydrate",O.[nH0]1cccc2cc3[nH0]cccc3cc12,Karthikeyan M.; Glen R.C.; Bender A. General melting point prediction based on a diverse compound dataset and artificial neural networks. J. Chem. Inf. Model.; 2005; 45(3); 581-3124
11547,2031118.0,,,11548.0,http://dx.doi.org/10.1021/ci0500132,134.0,"N,N'-[(2-nitrobenzene-1,4-diyl)di(E)methylylidene]dianiline",O=[N+]([O-])c1cc(ccc1C=Nc1ccccc1)C=Nc1ccccc1,Karthikeyan M.; Glen R.C.; Bender A. General melting point prediction based on a diverse compound dataset and artificial neural networks. J. Chem. Inf. Model.; 2005; 45(3); 581-3130
21205,6267.0,,,21206.0,http://www.srcinc.com/what-we-do/product.aspx?id=133,18.0,3-mercaptopropionic acid,O=C(O)CCS,PHYSPROP
9270,7855602.0,,,9271.0,http://dx.doi.org/10.1021/ci0500132,114.0,"{(5E)-5-[(2E)-(furan-2-ylmethylidene)hydrazinylidene]-4-phenyl-4,5-dihydro-1,3,4-thiadiazol-2-yl}(4-methylphenyl)methanone",S1C(=NN=Cc2occc2)N(N=C1C(=O)c1ccc(C)cc1)c1ccccc1,Karthikeyan M.; Glen R.C.; Bender A. General melting point prediction based on a diverse compound dataset and artificial neural networks. J. Chem. Inf. Model.; 2005; 45(3); 581-853
22311,1004.0,,,22312.0,http://www.srcinc.com/what-we-do/product.aspx?id=133,-126.1,1-propanol,CCCO,PHYSPROP
16360,3357.0,,,16361.0,http://www.drugbank.ca/drugs/DB00222,207.0,Glimepiride,CC=3CN(C(=O)NCCc1ccc(cc1)S(=O)(=O)NC(=O)NC2CCC(C)CC2)C(=O)C=3CC,DrugBank
10700,2034646.0,,,10701.0,http://dx.doi.org/10.1021/ci0500132,250.0,"2-naphthalen-2-yl-3-nitrosoimidazo[1,2-a]pyrimidine",O=Nc1[nH0]2C=CC=Nc2[nH0]c1c1ccc2ccccc2c1,Karthikeyan M.; Glen R.C.; Bender A. General melting point prediction based on a diverse compound dataset and artificial neural networks. J. Chem. Inf. Model.; 2005; 45(3); 581-2283
15786,121763.0,,,15787.0,http://msds.chem.ox.ac.uk/,-78.0,Ethenimine,C=C=N,academic website
22834,55103.0,,,22835.0,http://www.srcinc.com/what-we-do/product.aspx?id=133,76.0,"1,2,3-propanetriol, tribenzoate",O=C(OCC(OC(=O)c1ccccc1)COC(=O)c2ccccc2)c3ccccc3,PHYSPROP
27344,4526784.0,,,27345.0,http://pubs.acs.org/doi/abs/10.1021/ja01859a046,100.5,"(2E)-1,3-Bis-(4-methoxyphenyl)-2-propen-1-one",COC1=CC=C(C=C1)C(\C=C\C2=CC=C(C=C2)OC)=O,Journal of the American Chemical Society
21765,3915.0,,,21766.0,http://www.srcinc.com/what-we-do/product.aspx?id=133,107.0,"2-methyl-1,4-naphthoquinone",O=C2C=C(C)C(=O)c1ccccc12,PHYSPROP
7727,455964.0,,,7728.0,http://www.alfa.com/en/GP100W.pgm?DSSTK=L10995,67.0,methyltriphenylsilane,C[Si](c1ccccc1)(c2ccccc2)c3ccccc3,Alfa Aesar
15509,5886.0,,,15510.0,http://msds.chem.ox.ac.uk/,60.0,"5-[(3R)-1,2-Dithiolan-3-yl]pentanoic acid",O=C(O)CCCC[C@@H]1CCSS1,academic website
17620,24579.0,,,17621.0,http://www.srcinc.com/what-we-do/product.aspx?id=133,287.5,nequinate,O=C(OC)c2cnc3cc(OCc1ccccc1)c(cc3c2O)CCCC,PHYSPROP
19504,10834.0,,,19505.0,http://www.srcinc.com/what-we-do/product.aspx?id=133,64.5,9-bromophenanthrene,Brc2cc3ccccc3c1ccccc12,PHYSPROP
4612,644271.0,,,4613.0,http://www.alfa.com/en/GP100W.pgm?DSSTK=43627,255.0,4-aminopyrimidine-5-carbonitrile,c1c(c(ncn1)N)C#N,Alfa Aesar
907,8118095.0,,,908.0,http://www.alfa.com/en/GP100W.pgm?DSSTK=H31244,45.0,"(1S,2R)-1-phenyl-2-(1-pyrrolidinyl)-1-propanol",C[C@H]([C@H](c1ccccc1)O)N2CCCC2,Alfa Aesar
1443,107065.0,,,1444.0,http://www.alfa.com/en/GP100W.pgm?DSSTK=A19718,72.0,"2,4-dichloro-5-methylbenzenesulfonyl chloride",Cc1cc(c(cc1Cl)Cl)S(=O)(=O)Cl,Alfa Aesar
24572,91738.0,,,24573.0,http://www.srcinc.com/what-we-do/product.aspx?id=133,196.0,primisulfuron-methyl,O=C(Nc1nc(cc(OC(F)F)n1)OC(F)F)NS(=O)(=O)c2ccccc2C(=O)OC,PHYSPROP
14182,12972.0,,,14183.0,http://www.amazon.com/dp/B003XEQTLE,15.0,6-undecanone,CCCCCC(=O)CCCCC,Aldrich Chemical Company; Aldrich Catalog-Handbook of Fine Chemicals; Milwaukee; WI; 1984.
1165,2056249.0,,,1166.0,http://www.alfa.com/en/GP100W.pgm?DSSTK=B22922,253.0,"2,3,4,5,6-pentafluorobenzeneboronic acid",B(c1c(c(c(c(c1F)F)F)F)F)(O)O,Alfa Aesar
27089,21132375.0,,,27090.0,http://scripts.iucr.org/cgi-bin/paper?cv6101,176.85,N-(4-Acetyl-2-benzoylphenyl)benzamide,O=C(Nc2ccc(cc2C(=O)c1ccccc1)C(=O)C)c3ccccc3,IUCr
16196,7892.0,,,16197.0,http://msds.chem.ox.ac.uk/,11.0,Undecan-1-ol,CCCCCCCCCCCO,academic website
26077,10440039.0,,,26078.0,http://www.srcinc.com/what-we-do/product.aspx?id=133,101.5,"acetamide, n-(2-amino-2-oxoethyl)-2-(benzoyloxy)",NC(=O)CN(C)C(=O)COC(=O)c1ccccc1,PHYSPROP
20955,6763.0,,,20956.0,http://www.srcinc.com/what-we-do/product.aspx?id=133,82.5,"methanone, (4-bromophenyl)phenyl-",O=C(c1ccc(Br)cc1)c2ccccc2,PHYSPROP
3196,2007152.0,,,3197.0,http://www.alfa.com/en/GP100W.pgm?DSSTK=L17396,81.0,"3,3,3-trifluoro-2-hydroxy-2-(trifluoromethyl)propionic acid",C(=O)(C(C(F)(F)F)(C(F)(F)F)O)O,Alfa Aesar
13933,7602.0,,,13934.0,http://www.questia.com/library/book/physical_properties_of_chemical_compounds_by_robert_rickert_dreisbach.jsp,-96.0,2-bromopentane,BrC(C)CCC,Dreisbach R. R. Physical Properties of Chemical Compounds; Vol. III; American Chemical Society; Washington; 1961.
15434,69983.0,,,15435.0,http://msds.chem.ox.ac.uk/,151.5,4-Amino-2-chlorophenol,Nc1cc(Cl)c(O)cc1,academic website
23377,62402.0,,,23378.0,http://www.srcinc.com/what-we-do/product.aspx?id=133,8.5,"nicotinic acid, ethyl ester",O=C(OCC)c1cccnc1,PHYSPROP
11797,2030426.0,,,11798.0,http://dx.doi.org/10.1021/ci0500132,195.0,"2-benzyl-4,6-dibromoaniline",Brc1cc(Br)c(N)c(c1)Cc1ccccc1,Karthikeyan M.; Glen R.C.; Bender A. General melting point prediction based on a diverse compound dataset and artificial neural networks. J. Chem. Inf. Model.; 2005; 45(3); 581-3380
13145,66810.0,,,13146.0,http://www.amazon.com/dp/B002IYRJWI,-109.0,"1,1-dimethylcyclopropane",CC1(C)CC1,American Petroleum Institute. Research Project 44; Selected Values of Properties of Hydrocarbons and Related Compounds. Texas A & M University; College Station; TX; 1973.
16104,13837760.0,,,16105.0,http://msds.chem.ox.ac.uk/,105.0,Pyrocatechol,Oc1ccccc1O,academic website
2131,21168663.0,,,2132.0,http://www.alfa.com/en/GP100W.pgm?DSSTK=H26211,27.0,2-bromo-4-fluoro-5-(trifluoromethyl)aniline,c1c(c(cc(c1N)Br)F)C(F)(F)F,Alfa Aesar
3393,21242362.0,,,3394.0,http://www.alfa.com/en/GP100W.pgm?DSSTK=H27186,150.0,"3,5-dibromo-4-cyanopyridine",c1c(c(c(cn1)Br)C#N)Br,Alfa Aesar
10804,2034152.0,,,10805.0,http://dx.doi.org/10.1021/ci0500132,82.0,"1H-pyrazole-3-carboxylic acid, 5-methyl-, methyl ester",O=C(OC)C1=NNC(C)=C1,Karthikeyan M.; Glen R.C.; Bender A. General melting point prediction based on a diverse compound dataset and artificial neural networks. J. Chem. Inf. Model.; 2005; 45(3); 581-2387
2933,7686.0,,,2934.0,http://www.alfa.com/en/GP100W.pgm?DSSTK=L02567,-4.0,2-methylpiperidine,CC1CCCCN1,Alfa Aesar
1740,2016084.0,,,1741.0,http://www.alfa.com/en/GP100W.pgm?DSSTK=L19816,152.0,"2,6-dichlorobenzeneboronic acid",B(c1c(cccc1Cl)Cl)(O)O,Alfa Aesar
2719,643302.0,,,2720.0,http://www.alfa.com/en/GP100W.pgm?DSSTK=H27671,135.0,2'-hydroxy-5'-methyl-3'-nitroacetophenone,Cc1cc(c(c(c1)[N+](=O)[O-])O)C(=O)C,Alfa Aesar
25834,4941472.0,,,25835.0,http://www.srcinc.com/what-we-do/product.aspx?id=133,171.0,rhodopin,CC(C)(O)CCCC(C)=CC=CC(C)=CC=CC(C)=CC=CC=C(C)/C=C/C=C(C)/C=C/C=C(C)CCC=C(/C)C,PHYSPROP
8293,13835459.0,,,8294.0,http://www.alfa.com/en/GP100W.pgm?DSSTK=A15049,110.0,"piperazine, anhydrous",C1CNCCN1,Alfa Aesar
9123,10484009.0,,,9124.0,http://dx.doi.org/10.1021/ci0500132,211.0,"(2E)-{4-methyl-5-[(E)-phenyldiazenyl]-1,3-thiazol-2-yl}[2-(2-nitrophenyl)hydrazinylidene]ethanenitrile",s1c(N=Nc2ccccc2)c([nH0]c1C(=NNc1ccccc1[N+](=O)[O-])C#N)C,Karthikeyan M.; Glen R.C.; Bender A. General melting point prediction based on a diverse compound dataset and artificial neural networks. J. Chem. Inf. Model.; 2005; 45(3); 581-704
13279,454272.0,,,13280.0,http://www.amazon.com/dp/B002IYRJWI,-117.0,2-methyl-3-hexyne,CCC#CC(C)C,American Petroleum Institute. Research Project 44; Selected Values of Properties of Hydrocarbons and Related Compounds. Texas A & M University; College Station; TX; 1973.
2794,2108521.0,,,2795.0,http://www.alfa.com/en/GP100W.pgm?DSSTK=L14228,196.0,2-mercapto-5-methoxybenzothiazole,COc1ccc2c(c1)nc(s2)S,Alfa Aesar
21985,2972.0,,,21986.0,http://www.srcinc.com/what-we-do/product.aspx?id=133,76.5,"2,4-oxazolidinedione, 5,5-dimethyl-",O=C1NC(=O)C(C)(C)O1,PHYSPROP
10189,2772107.0,,,10190.0,http://dx.doi.org/10.1021/ci0500132,108.0,12-hydroxy-3-oxocholan-24-oic acid,O=C1CCC2(C)C(CCC3C4CCC(C(C)CCC(=O)O)C4(C)C(O)CC32)C1,Karthikeyan M.; Glen R.C.; Bender A. General melting point prediction based on a diverse compound dataset and artificial neural networks. J. Chem. Inf. Model.; 2005; 45(3); 581-1772
12734,74932.0,,,12735.0,http://dx.doi.org/10.1021/ci0500132,81.0,"o,o'-Dibromobiphenyl",Brc1ccccc1c1ccccc1Br,Karthikeyan M.; Glen R.C.; Bender A. General melting point prediction based on a diverse compound dataset and artificial neural networks. J. Chem. Inf. Model.; 2005; 45(3); 581-4317
14111,10986.0,,,14112.0,http://www.amazon.com/dp/B003XEQTLE,209.0,4-acetylbenzoic_acid,OC(=O)c1ccc(cc1)C(C)=O,Aldrich Chemical Company; Aldrich Catalog-Handbook of Fine Chemicals; Milwaukee; WI; 1984.
15860,22761.0,,,15861.0,http://msds.chem.ox.ac.uk/,110.0,Iodic acid,O=I(=O)O,academic website
14006,66551.0,,,14007.0,http://www.amazon.com/dp/B003XEQTLE,24.0,cyclodecanone,O=C1CCCCCCCCC1,Aldrich Chemical Company; Aldrich Catalog-Handbook of Fine Chemicals; Milwaukee; WI; 1984.
15398,21106091.0,,,15399.0,http://msds.chem.ox.ac.uk/,95.0,4-(2-Methylbutan-2-yl)phenol,Oc1ccc(cc1)C(C)(C)CC,academic website
26219,10443383.0,,,26220.0,http://www.srcinc.com/what-we-do/product.aspx?id=133,126.0,n(24-no2-6cl ph)-2(3cl-5cf3)pyridinamine,[O-][N+](=O)c2cc(cc(Cl)c2Nc1ncc(cc1Cl)C(F)(F)F)[N+]([O-])=O,PHYSPROP
4463,16179979.0,,,4464.0,http://www.alfa.com/en/GP100W.pgm?DSSTK=H26155,162.0,"4,5-difluoro-2-hydroxybenzonitrile",c1c(c(cc(c1F)F)O)C#N,Alfa Aesar
20988,6701.0,,,20989.0,http://www.srcinc.com/what-we-do/product.aspx?id=133,152.5,"carbamodithioic acid, dimethyl-, 2,4-dinitrophen",S=C(Sc1ccc(cc1[N+]([O-])=O)[N+]([O-])=O)N(C)C,PHYSPROP
21131,6398.0,,,21132.0,http://www.srcinc.com/what-we-do/product.aspx?id=133,-45.0,"p-menthane-1,8-diyldiamine",CC1(N)CCC(CC1)C(C)(C)N,PHYSPROP
2854,3915.0,,,2855.0,http://www.alfa.com/en/GP100W.pgm?DSSTK=A13593,106.0,"2-methyl-1,4-naphthoquinone",CC1=CC(=O)c2ccccc2C1=O,Alfa Aesar
18349,15359.0,,,18350.0,http://www.srcinc.com/what-we-do/product.aspx?id=133,197.5,"2,6-dichlorobenzamide",O=C(N)c1c(Cl)cccc1Cl,PHYSPROP
16756,13837760.0,,,16757.0,http://www.drugbank.ca/drugs/DB02232,105.0,"1,2-Dihydroxybenzene",Oc1ccccc1O,DrugBank
25698,4512644.0,,,25699.0,http://www.srcinc.com/what-we-do/product.aspx?id=133,-107.5,2-methyl-hept-3-ene,CCCC=CC(C)C,PHYSPROP
13394,264937.0,,,13395.0,http://de.wikipedia.org/wiki/Beilsteins_Handbuch_der_Organischen_Chemie,-53.0,"1,3-cyclooctadiene",C1C=CC=CCCC1,Beilstein F. K.; Beilsteins Handbuch der Organischen Chemie. Springer; Berlin; 1972.
25578,4444535.0,,,25579.0,http://www.srcinc.com/what-we-do/product.aspx?id=133,93.5,mycophenolate mofetil,Oc3c1C(=O)OCc1c(C)c(OC)c3CC=C(/C)CCC(=O)OCCN2CCOCC2,PHYSPROP
19324,11286.0,,,19325.0,http://www.srcinc.com/what-we-do/product.aspx?id=133,214.0,3-nitrophthalimide,[O-][N+](=O)c2cccc1C(=O)NC(=O)c12,PHYSPROP
9990,4489034.0,,,9991.0,http://dx.doi.org/10.1021/ci0500132,143.0,"(2E)-3-(2,4-Dichlorophenyl)-2-[4-(4-methoxyphenyl)-1,3-thiazol-2-yl]acrylonitrile",Clc1ccc(C=C(C#N)c2scc([nH0]2)c2ccc(OC)cc2)c(Cl)c1,Karthikeyan M.; Glen R.C.; Bender A. General melting point prediction based on a diverse compound dataset and artificial neural networks. J. Chem. Inf. Model.; 2005; 45(3); 581-1573
7769,456043.0,,,7770.0,http://www.alfa.com/en/GP100W.pgm?DSSTK=A15589,111.0,"N-(4-acetylphenyl)-2,5-dimethylpyrrole",Cc1ccc(n1c2ccc(cc2)C(=O)C)C,Alfa Aesar
2834,62678.0,,,2835.0,http://www.alfa.com/en/GP100W.pgm?DSSTK=L11822,105.0,2-methoxy-5-nitrophenol,COc1ccc(cc1O)[N+](=O)[O-],Alfa Aesar
17942,18806.0,,,17943.0,http://www.srcinc.com/what-we-do/product.aspx?id=133,-128.8,"2-methyl-1,5-hexadiene",C=C(C)CCC=C,PHYSPROP
19771,9965.0,,,19772.0,http://www.srcinc.com/what-we-do/product.aspx?id=133,130.8,p-hydroxy-b-propionic acid,Oc1ccc(CCC(=O)O)cc1,PHYSPROP
22518,65.0,,,22519.0,http://www.srcinc.com/what-we-do/product.aspx?id=133,59.0,"2,5-dichlorophenol",Clc1ccc(Cl)c(O)c1,PHYSPROP
13099,6102.0,,,13100.0,http://www.questia.com/library/book/physical_properties_of_chemical_compounds_by_robert_rickert_dreisbach.jsp,-46.0,methyl_cyanide,CC#N,Dreisbach R. R. Physical Properties of Chemical Compounds; Vol. III; American Chemical Society; Washington; 1961.
23271,61703.0,,,23272.0,http://www.srcinc.com/what-we-do/product.aspx?id=133,91.0,guaiacol phosphate,COc3ccccc3OP(=O)(Oc1ccccc1OC)Oc2ccccc2OC,PHYSPROP
22493,201.0,,,22494.0,http://www.srcinc.com/what-we-do/product.aspx?id=133,146.0,alpha-d-glucose,OC1C(O)C(CO)OC(O)C1O,PHYSPROP
1752,525527.0,,,1753.0,http://www.alfa.com/en/GP100W.pgm?DSSTK=L10421,44.0,"2,6-dichlorophenyl isocyanate",c1cc(c(c(c1)Cl)N=C=O)Cl,Alfa Aesar
10826,2034111.0,,,10827.0,http://dx.doi.org/10.1021/ci0500132,127.0,"3-hydroxy-5,5-diphenylfuran-2(5H)-one",O=C1OC(C=C1O)(c1ccccc1)c1ccccc1,Karthikeyan M.; Glen R.C.; Bender A. General melting point prediction based on a diverse compound dataset and artificial neural networks. J. Chem. Inf. Model.; 2005; 45(3); 581-2409
7594,11204165.0,,,7595.0,http://www.alfa.com/en/GP100W.pgm?DSSTK=H27773,33.0,methyl 4-bromo-2-methoxybenzoate,COc1cc(ccc1C(=O)OC)Br,Alfa Aesar
1682,56162.0,,,1683.0,http://www.alfa.com/en/GP100W.pgm?DSSTK=L10199,20.0,"2,6,6-trimethyl-2-cyclohexene-1,4-dione",CC1=CC(=O)CC(C1=O)(C)C,Alfa Aesar
15158,21106172.0,,,15159.0,http://msds.chem.ox.ac.uk/,69.0,"2,4,6-Trichlorophenol",Clc1cc(Cl)cc(Cl)c1O,academic website
2866,11056.0,,,2867.0,http://www.alfa.com/en/GP100W.pgm?DSSTK=A19090,-103.0,2-methyl-2-pentanol,CCCC(C)(C)O,Alfa Aesar
6619,6323.0,,,6620.0,http://www.alfa.com/en/GP100W.pgm?DSSTK=A11922,-45.0,chloroacetone,CC(=O)CCl,Alfa Aesar
14691,67989.0,,,14692.0,http://www.amazon.com/dp/B003XEQTLE,35.0,"1,2-dichloro-3-iodobenzene",Ic1cccc(Cl)c1Cl,Aldrich Chemical Company; Aldrich Catalog-Handbook of Fine Chemicals; Milwaukee; WI; 1984.
19796,9893.0,,,19797.0,http://www.srcinc.com/what-we-do/product.aspx?id=133,12.0,"1-butanone, 1-phenyl-",O=C(CCC)c1ccccc1,PHYSPROP
10569,2034950.0,,,10570.0,http://dx.doi.org/10.1021/ci0500132,242.0,"N,N'-({2-[(2-chlorobenzyl)oxy]phenyl}methanediyl)dibenzamide",Clc1ccccc1COc1ccccc1C(NC(=O)c1ccccc1)NC(=O)c1ccccc1,Karthikeyan M.; Glen R.C.; Bender A. General melting point prediction based on a diverse compound dataset and artificial neural networks. J. Chem. Inf. Model.; 2005; 45(3); 581-2152
20942,6780.0,,,20943.0,http://www.srcinc.com/what-we-do/product.aspx?id=133,-14.78,quinoline,c1cccc2cccnc12,PHYSPROP
18635,13646.0,,,18636.0,http://www.srcinc.com/what-we-do/product.aspx?id=133,112.0,4-dimethylaminopyridine,CN(C)c1ccncc1,PHYSPROP
6597,69525.0,,,6598.0,http://www.alfa.com/en/GP100W.pgm?DSSTK=L01971,44.0,butyric acid hydrazide,CCCC(=O)NN,Alfa Aesar
2051,312218.0,,,2052.0,http://www.alfa.com/en/GP100W.pgm?DSSTK=L19843,258.0,2-aminopyridine-4-carboxamide,c1cnc(cc1C(=O)N)N,Alfa Aesar
11082,2033669.0,,,11083.0,http://dx.doi.org/10.1021/ci0500132,180.0,"5,6-dichloro-3-hydroxy-2-benzofuran-1(3H)-one",Clc1cc2c(cc1Cl)C(O)OC2=O,Karthikeyan M.; Glen R.C.; Bender A. General melting point prediction based on a diverse compound dataset and artificial neural networks. J. Chem. Inf. Model.; 2005; 45(3); 581-2665
11040,2033757.0,,,11041.0,http://dx.doi.org/10.1021/ci0500132,56.0,"5-fluorobicyclo[4.2.0]octa-1,3,5-trien-7-ol",Fc1cccc2CC(O)c21,Karthikeyan M.; Glen R.C.; Bender A. General melting point prediction based on a diverse compound dataset and artificial neural networks. J. Chem. Inf. Model.; 2005; 45(3); 581-2623
24037,70681.0,,,24038.0,http://www.srcinc.com/what-we-do/product.aspx?id=133,41.7,"heptane, 1,7-dibromo-",BrCCCCCCCBr,PHYSPROP
6165,600117.0,,,6166.0,http://www.alfa.com/en/GP100W.pgm?DSSTK=H27825,152.0,6-methylchromone-3-carbonitrile,Cc1ccc2c(c1)c(=O)c(co2)C#N,Alfa Aesar
14838,571406.0,,,14839.0,http://msds.chem.ox.ac.uk/,168.0,"(E)-N',2-Diphenyldiazenecarbothiohydrazide",S=C(NNc1ccccc1)/N=N/c2ccccc2,academic website
12062,2029322.0,,,12063.0,http://dx.doi.org/10.1021/ci0500132,217.0,"5-[(4-chlorophenyl)methylidene]-3-{[(4-nitrophenyl)amino]methyl}-2-thioxo-1,3-thiazolidin-4-one",Clc1ccc(cc1)C=C1SC(=S)N(CNc2ccc([N+](=O)[O-])cc2)C1=O,Karthikeyan M.; Glen R.C.; Bender A. General melting point prediction based on a diverse compound dataset and artificial neural networks. J. Chem. Inf. Model.; 2005; 45(3); 581-3645
14180,7871.0,,,14181.0,http://www.amazon.com/dp/B002IYRJWI,13.0,2-undecanone,CC(=O)CCCCCCCCC,American Petroleum Institute. Research Project 44; Selected Values of Properties of Hydrocarbons and Related Compounds. Texas A & M University; College Station; TX; 1973.
16876,3647.0,,,16877.0,http://www.drugbank.ca/drugs/DB01064,170.5,Isoproterenol,Oc1ccc(cc1O)C(O)CNC(C)C,DrugBank
6439,2056653.0,,,6440.0,http://www.alfa.com/en/GP100W.pgm?DSSTK=H27512,100.0,benzo[b]thiophene-2-methanol,c1ccc2c(c1)cc(s2)CO,Alfa Aesar