,csid,donotuse,donotusebecause,key,link,mpC,name,smiles,source
9734,4645214.0,,,9735.0,http://dx.doi.org/10.1021/ci0500132,233.0,"(1Z)-1-[(2E,4E)-1,3-dimethyl-5-phenylpenta-2,4-dien-1-ylidene]-2-(2,4-dinitrophenyl)hydrazine",O=[N+]([O-])c1ccc(NN=C(C)C=C(C)C=Cc2ccccc2)c([N+](=O)[O-])c1,Karthikeyan M.; Glen R.C.; Bender A. General melting point prediction based on a diverse compound dataset and artificial neural networks. J. Chem. Inf. Model.; 2005; 45(3); 581-1317
25820,4928348.0,,,25821.0,http://www.srcinc.com/what-we-do/product.aspx?id=133,64.45,pyraclostrobin,O=C(OC)N(OC)c3ccccc3COc1ccn(n1)c2ccc(Cl)cc2,PHYSPROP
13382,235.0,x,repeating value clearly out of range cc,13383.0,http://www.amazon.com/dp/B003XEQTLE,-26.0,benzaldehyde,O=Cc1ccccc1,Aldrich Chemical Company; Aldrich Catalog-Handbook of Fine Chemicals; Milwaukee; WI; 1984.
26069,10439817.0,,,26070.0,http://www.srcinc.com/what-we-do/product.aspx?id=133,165.0,"benzenesulfonamide, 3-fluoro-4-[(2-hydroxyethyl)",Fc1cc(ccc1S(=O)(=O)CCO)S(N)(=O)=O,PHYSPROP
23156,61144.0,,,23157.0,http://www.srcinc.com/what-we-do/product.aspx?id=133,80.0,perfluoroglutaric acid,FC(F)(C(F)(F)C(=O)O)C(F)(F)C(=O)O,PHYSPROP
14589,10540.0,,,14590.0,http://www.amazon.com/dp/B002IYRJWI,18.0,hexadecane,CCCCCCCCCCCCCCCC,American Petroleum Institute. Research Project 44; Selected Values of Properties of Hydrocarbons and Related Compounds. Texas A & M University; College Station; TX; 1973.
3981,87235.0,,,3982.0,http://www.alfa.com/en/GP100W.pgm?DSSTK=B23355,213.0,"3-hydroxy-2,4,6-triiodobenzoic acid",c1c(c(c(c(c1I)O)I)C(=O)O)I,Alfa Aesar
23488,62813.0,,,23489.0,http://www.srcinc.com/what-we-do/product.aspx?id=133,-37.2,methylphosphonic difluoride,CP(F)(F)=O,PHYSPROP
9200,10482697.0,,,9201.0,http://dx.doi.org/10.1021/ci0500132,243.0,"1-[(Z)-2-{3-[2-(2,4-dinitrophenyl)ethenyl]phenyl}ethenyl]-2,4-dinitrobenzene",O=[N+]([O-])c1ccc(C=Cc2cccc(c2)C=Cc2ccc([N+](=O)[O-])cc2[N+](=O)[O-])c([N+](=O)[O-])c1,Karthikeyan M.; Glen R.C.; Bender A. General melting point prediction based on a diverse compound dataset and artificial neural networks. J. Chem. Inf. Model.; 2005; 45(3); 581-783
1790,84452.0,,,1791.0,http://www.alfa.com/en/GP100W.pgm?DSSTK=B21465,224.0,"2,6-dihydroxynaphthalene",c1cc(cc2c1cc(cc2)O)O,Alfa Aesar
2596,5386425.0,,,2597.0,http://www.alfa.com/en/GP100W.pgm?DSSTK=H27517,58.0,2-fluoro-4-iodopyridine,c1cnc(cc1I)F,Alfa Aesar
7963,2016228.0,,,7964.0,http://www.alfa.com/en/GP100W.pgm?DSSTK=H51969,119.0,N-boc-4-bromo-L-phenylalanine,CC(C)(C)OC(=O)N[C@@H](Cc1ccc(cc1)Br)C(=O)O,Alfa Aesar
5582,79244.0,,,5583.0,http://www.alfa.com/en/GP100W.pgm?DSSTK=H26991,10.0,4-tert-butylbenzyl bromide,CC(C)(C)c1ccc(cc1)CBr,Alfa Aesar
18359,15278.0,,,18360.0,http://www.srcinc.com/what-we-do/product.aspx?id=133,47.0,2-bromoheptane,BrC(C)CCCCC,PHYSPROP
20391,7838.0,,,20392.0,http://www.srcinc.com/what-we-do/product.aspx?id=133,-43.3,heptanal,CCCCCCC=O,PHYSPROP
4606,65747.0,,,4607.0,http://www.alfa.com/en/GP100W.pgm?DSSTK=A17051,290.0,4-aminophthalimide,c1cc2c(cc1N)C(=O)NC2=O,Alfa Aesar
18617,13699.0,,,18618.0,http://www.srcinc.com/what-we-do/product.aspx?id=133,175.0,"2,2'-bipyridine, 4,4'-dimethyl-",Cc1cc(ncc1)c2cc(C)ccn2,PHYSPROP
4059,66355.0,,,4060.0,http://www.alfa.com/en/GP100W.pgm?DSSTK=B24171,23.0,3-methoxybenzonitrile,COc1cccc(c1)C#N,Alfa Aesar
14300,14473.0,,,14301.0,http://de.wikipedia.org/wiki/Beilsteins_Handbuch_der_Organischen_Chemie,54.0,m-nitrophenyl_acetate,O=C(C)Oc1cccc(c1)[N+]([O-])=O,Beilstein F. K.; Beilsteins Handbuch der Organischen Chemie. Springer; Berlin; 1972.
11011,2033792.0,,,11012.0,http://dx.doi.org/10.1021/ci0500132,135.0,"dimethyl 6-methyl-1-oxo-1,4-dihydro-3H-isochromene-3,3-dicarboxylate",O=C1OC(Cc2cc(C)ccc12)(C(=O)OC)C(=O)OC,Karthikeyan M.; Glen R.C.; Bender A. General melting point prediction based on a diverse compound dataset and artificial neural networks. J. Chem. Inf. Model.; 2005; 45(3); 581-2594
11853,2029947.0,,,11854.0,http://dx.doi.org/10.1021/ci0500132,177.0,"N-(1,5-dimethyl-3-oxo-2-phenyl-2,3-dihydro-1H-pyrazol-4-yl)-2,2,3,3,4,4,5,5,6,6,7,7,8,8,9,9,9-heptadecafluorononanamide",FC(F)(F)C(F)(F)C(F)(F)C(F)(F)C(F)(F)C(F)(F)C(F)(F)C(F)(F)C(=O)NC=1C(=O)N(N(C)C=1C)c1ccccc1,Karthikeyan M.; Glen R.C.; Bender A. General melting point prediction based on a diverse compound dataset and artificial neural networks. J. Chem. Inf. Model.; 2005; 45(3); 581-3436
11704,2030621.0,,,11705.0,http://dx.doi.org/10.1021/ci0500132,100.0,"2-methyl-1,4-bis[(Z)-phenyl-NNO-azoxy]benzene",[O-][N+](=Nc1ccccc1)c1ccc([N+]([O-])=Nc2ccccc2)c(C)c1,Karthikeyan M.; Glen R.C.; Bender A. General melting point prediction based on a diverse compound dataset and artificial neural networks. J. Chem. Inf. Model.; 2005; 45(3); 581-3287
1259,2016346.0,,,1260.0,http://www.alfa.com/en/GP100W.pgm?DSSTK=H32763,134.0,"2,3-dichlorophenylacetic acid",c1cc(c(c(c1)Cl)Cl)CC(=O)O,Alfa Aesar
27423,29025.0,,,27424.0,http://webbook.nist.gov/cgi/cbook.cgi?ID=C124118&Units=SI&Mask=7,-83.15,1-nonene,C=CCCCCCCC,NIST Web Book
19497,10851.0,,,19498.0,http://www.srcinc.com/what-we-do/product.aspx?id=133,-16.9,"1,6-dimethylnaphthalene",Cc2cccc1cc(C)ccc12,PHYSPROP
1856,11477.0,,,1857.0,http://www.alfa.com/en/GP100W.pgm?DSSTK=B21264,208.0,2-acetamidophenol,CC(=O)Nc1ccccc1O,Alfa Aesar
806,2299139.0,,,807.0,http://www.alfa.com/en/GP100W.pgm?DSSTK=B22003,170.0,1-(4-hydroxyphenyl)-5-mercaptotetrazole,c1cc(ccc1n2c(nnn2)S)O,Alfa Aesar
23220,61475.0,,,23221.0,http://www.srcinc.com/what-we-do/product.aspx?id=133,48.0,octadec-9-ynoic acid,O=C(O)CCCCCCCC#CCCCCCCCC,PHYSPROP
17458,29023.0,,,17459.0,http://www.srcinc.com/what-we-do/product.aspx?id=133,12.3,ethylmyristate,O=C(CCCCCCCCCCCCC)OCC,PHYSPROP
5936,263274.0,,,5937.0,http://www.alfa.com/en/GP100W.pgm?DSSTK=L17414,86.0,"5-iodo-1,2,3-trimethoxybenzene",COc1cc(cc(c1OC)OC)I,Alfa Aesar
26759,21106093.0,,,26760.0,http://www.srcinc.com/what-we-do/product.aspx?id=133,7.6,"dl-2,3-butandiol",CC(O)C(C)O,PHYSPROP
13020,3924.0,,,13021.0,http://dx.doi.org/10.1021/ci0500132,104.0,Sowell,O=C(OCC(C)(COC(=O)N)CCC)N,Karthikeyan M.; Glen R.C.; Bender A. General melting point prediction based on a diverse compound dataset and artificial neural networks. J. Chem. Inf. Model.; 2005; 45(3); 581-4603
15146,20548.0,,,15147.0,http://msds.chem.ox.ac.uk/,44.5,"2,3-Dimethoxybenzonitrile",COc1cccc(C#N)c1OC,academic website
3625,209097.0,,,3626.0,http://www.alfa.com/en/GP100W.pgm?DSSTK=A12508,216.0,3-amino-5-nitrobenzoic acid,c1c(cc(cc1N)[N+](=O)[O-])C(=O)O,Alfa Aesar
25574,4444395.0,,,25575.0,http://www.srcinc.com/what-we-do/product.aspx?id=133,277.0,kaempferol,Oc1ccc(cc1)C=3Oc2cc(O)cc(O)c2C(=O)C=3O,PHYSPROP
19149,11638.0,,,19150.0,http://www.srcinc.com/what-we-do/product.aspx?id=133,88.0,o-benzyl carbamate,NC(=O)OCc1ccccc1,PHYSPROP
27875,7555.0,,,27876.0,http://webbook.nist.gov/cgi/cbook.cgi?ID=C106978&Units=SI&Mask=7,-137.15,butane,CCCC,NIST Web Book
9987,4489642.0,,,9988.0,http://dx.doi.org/10.1021/ci0500132,254.0,"(2Z)-2-[4-(4-chlorophenyl)-1,3-thiazol-2-yl]-3-pyridin-3-ylprop-2-enenitrile",Clc1ccc(cc1)c1[nH0]c(sc1)C(C#N)=Cc1c[nH0]ccc1,Karthikeyan M.; Glen R.C.; Bender A. General melting point prediction based on a diverse compound dataset and artificial neural networks. J. Chem. Inf. Model.; 2005; 45(3); 581-1570
24243,77476.0,,,24244.0,http://www.srcinc.com/what-we-do/product.aspx?id=133,45.5,"cyclohexanol, 3-(aminomethyl)-3,5,5-trimethyl-",NCC1(C)CC(C)(C)CC(O)C1,PHYSPROP
2083,487876.0,,,2084.0,http://www.alfa.com/en/GP100W.pgm?DSSTK=L19240,77.0,2-benzyloxyphenylacetonitrile,c1ccc(cc1)COc2ccccc2CC#N,Alfa Aesar
19808,9856.0,,,19809.0,http://www.srcinc.com/what-we-do/product.aspx?id=133,145.0,"benzoic acid, 2,4,5-trimethoxy-",COc1cc(OC)c(cc1OC)C(=O)O,PHYSPROP
6065,63308.0,,,6066.0,http://www.alfa.com/en/GP100W.pgm?DSSTK=L03332,360.0,6-aminouracil,c1c([nH]c(=O)[nH]c1=O)N,Alfa Aesar
11872,2029928.0,,,11873.0,http://dx.doi.org/10.1021/ci0500132,66.0,"Nonanamide, 2,2,3,3,4,4,5,5,6,6,7,7,8,8,9,9,9-heptadecafluoro-N-2-pyridinyl-",FC(F)(F)C(F)(F)C(F)(F)C(F)(F)C(F)(F)C(F)(F)C(F)(F)C(F)(F)C(=O)Nc1[nH0]cccc1,Karthikeyan M.; Glen R.C.; Bender A. General melting point prediction based on a diverse compound dataset and artificial neural networks. J. Chem. Inf. Model.; 2005; 45(3); 581-3455
14270,160585.0,,,14271.0,http://de.wikipedia.org/wiki/Beilsteins_Handbuch_der_Organischen_Chemie,148.0,"isophthalic_acid,_methylester_amide",COC(=O)c1cccc(c1)C(N)=O,Beilstein F. K.; Beilsteins Handbuch der Organischen Chemie. Springer; Berlin; 1972.
15752,6770.0,,,15753.0,http://msds.chem.ox.ac.uk/,66.0,Diphenylmethanol,OC(c1ccccc1)c2ccccc2,academic website
15828,28986.0,,,15829.0,http://msds.chem.ox.ac.uk/,-33.0,Heptan-4-one,CCCC(=O)CCC,academic website
13776,1583.0,,,13777.0,http://www.amazon.com/dp/B003XEQTLE,115.0,m-aminobenzamide,O=C(N)c1cc(N)ccc1,Aldrich Chemical Company; Aldrich Catalog-Handbook of Fine Chemicals; Milwaukee; WI; 1984.
446,7809.0,,,447.0,http://www.alfa.com/en/GP100W.pgm?DSSTK=A18465,-34.0,"1,5-dibromopentane",C(CCBr)CCBr,Alfa Aesar
1232,630.0,,,1233.0,http://www.alfa.com/en/GP100W.pgm?DSSTK=A14217,-3.0,"2,3-butanedione",CC(=O)C(=O)C,Alfa Aesar
25828,4940754.0,,,25829.0,http://www.srcinc.com/what-we-do/product.aspx?id=133,83.5,p-fluorobenzaldoxime,Fc1ccc(C=NO)cc1,PHYSPROP
8770,3534.0,,,8771.0,http://dx.doi.org/10.1021/ci020280x,114.0,atropine,CN1C2CCC1CC(C2)OC(=O)C(CO)c3ccccc3,Bergstrom C. A. S.; Norinder U.; Luthman K.; Artursson P. Molecular Descriptors Influencing Melting Point and Their Role in Classification of Solid Drugs. J. Chem. Inf. Comput. Sci.; (Article); 2003; 43(4); 1177-1217
7691,17347.0,,,7692.0,http://www.alfa.com/en/GP100W.pgm?DSSTK=A11727,87.0,methyl phenyl sulfone,CS(=O)(=O)c1ccccc1,Alfa Aesar
24069,71321.0,,,24070.0,http://www.srcinc.com/what-we-do/product.aspx?id=133,13.0,"cyclohexane, fluoro-",FC1CCCCC1,PHYSPROP
10127,3190162.0,,,10128.0,http://dx.doi.org/10.1021/ci0500132,202.0,"androst-5-ene-3,14-diol",OC1CCC2(C)C(=CCC3C2CCC2(C)CCCC32O)C1,Karthikeyan M.; Glen R.C.; Bender A. General melting point prediction based on a diverse compound dataset and artificial neural networks. J. Chem. Inf. Model.; 2005; 45(3); 581-1710
9658,4645451.0,,,9659.0,http://dx.doi.org/10.1021/ci0500132,143.0,"(4E)-2-(hydroxymethyl)-4-[(4-methoxyphenyl)hydrazono]-5-(trifluoromethyl)-2,4-dihydro-3H-pyrazol-3-one",FC(F)(F)C1=NN(CO)C(=O)C1=NNc1ccc(OC)cc1,Karthikeyan M.; Glen R.C.; Bender A. General melting point prediction based on a diverse compound dataset and artificial neural networks. J. Chem. Inf. Model.; 2005; 45(3); 581-1241
22712,40110.0,,,22713.0,http://www.srcinc.com/what-we-do/product.aspx?id=133,219.0,"1,3,6,8-tetrachlorodibenzo-p-dioxin",Clc2cc1Oc3cc(Cl)cc(Cl)c3Oc1c(Cl)c2,PHYSPROP
22951,59124.0,,,22952.0,http://www.srcinc.com/what-we-do/product.aspx?id=133,229.0,resorantel,Brc2ccc(NC(=O)c1c(O)cccc1O)cc2,PHYSPROP
3560,5373916.0,,,3561.0,http://www.alfa.com/en/GP100W.pgm?DSSTK=L18720,33.0,3-acetoxy-2-methylbenzoyl chloride,Cc1c(cccc1OC(=O)C)C(=O)Cl,Alfa Aesar
22996,59571.0,,,22997.0,http://www.srcinc.com/what-we-do/product.aspx?id=133,320.0,lumiflavine,Cc2cc3N=C1C(=O)NC(=O)N=C1N(C)c3cc2C,PHYSPROP
26181,10442792.0,,,26182.0,http://www.srcinc.com/what-we-do/product.aspx?id=133,234.5,"1-(4-iodo),2-dibenzoyl-1-tert-butylhydrazine",O=C(c1ccc(I)cc1)N(NC(=O)c2ccccc2)C(C)(C)C,PHYSPROP
8903,2297519.0,,,8904.0,http://dx.doi.org/10.1021/ci020280x,96.0,tamoxifen,CCC(=C(c1ccccc1)c2ccc(OCCN(C)C)cc2)c3ccccc3,Bergstrom C. A. S.; Norinder U.; Luthman K.; Artursson P. Molecular Descriptors Influencing Melting Point and Their Role in Classification of Solid Drugs. J. Chem. Inf. Comput. Sci.; (Article); 2003; 43(4); 1177-1350
17191,4758.0,,,17192.0,http://dx.doi.org/10.1021/ci700307p,60.0,promethazine,CN(C)C(C)CN1c3ccccc3Sc2ccccc12,Hughes LD; Palmer DS; Nigsch F and Mitchell JBO. 2008 Why are some properties more difficult to predict than others? A study of QSPR models of solubility; melting point and LogP. J. Chem. Inf. Model. 2008. 48 (1). pp 220?339
26726,21105876.0,,,26727.0,http://www.srcinc.com/what-we-do/product.aspx?id=133,3.6,dibenzyl ether,C(OCc1ccccc1)c2ccccc2,PHYSPROP
1105,12493.0,,,1106.0,http://www.alfa.com/en/GP100W.pgm?DSSTK=A18712,-59.0,"2,2,6,6-tetramethylpiperidine",CC1(CCCC(N1)(C)C)C,Alfa Aesar
21245,6191.0,,,21246.0,http://www.srcinc.com/what-we-do/product.aspx?id=133,-100.7,hexafluoroethane,FC(F)(F)C(F)(F)F,PHYSPROP
24460,84287.0,,,24461.0,http://www.srcinc.com/what-we-do/product.aspx?id=133,137.0,methasulfocarb,O=C(Sc1ccc(cc1)OS(C)(=O)=O)NC,PHYSPROP
27768,582.0,,,27769.0,http://chemspider.com/582,292.0,alanine,CC(C(=O)O)N,EPISuite-ChemSpider
12946,9946.0,,,12947.0,http://dx.doi.org/10.1021/ci0500132,233.0,2-(p-Chloroanilino)-4-amino-s-triazine,Clc1ccc(Nc2[nH0]c[nH0]c(N)[nH0]2)cc1,Karthikeyan M.; Glen R.C.; Bender A. General melting point prediction based on a diverse compound dataset and artificial neural networks. J. Chem. Inf. Model.; 2005; 45(3); 581-4529
24542,88482.0,,,24543.0,http://www.srcinc.com/what-we-do/product.aspx?id=133,34.0,"pentanoic acid, 2-hydroxy-",O=C(O)C(O)CCC,PHYSPROP
16500,10189562.0,,,16501.0,http://www.drugbank.ca/drugs/DB00126,191.0,Vitamin C,OC=1C(=O)O[C@@H](C=1O)[C@@H](O)CO,DrugBank
4177,24499.0,,,4178.0,http://www.alfa.com/en/GP100W.pgm?DSSTK=A13008,6.0,3-phenoxybenzyl alcohol,c1ccc(cc1)Oc2cccc(c2)CO,Alfa Aesar
9012,54531.0,,,9013.0,http://dx.doi.org/10.1021/ci020280x,157.0,zileuton,CC(N(O)C(N)=O)c2cc1ccccc1s2,Bergstrom C. A. S.; Norinder U.; Luthman K.; Artursson P. Molecular Descriptors Influencing Melting Point and Their Role in Classification of Solid Drugs. J. Chem. Inf. Comput. Sci.; (Article); 2003; 43(4); 1177-1459
4195,21106520.0,,,4196.0,http://www.alfa.com/en/GP100W.pgm?DSSTK=A14012,-18.0,3-picoline,Cc1cccnc1,Alfa Aesar
24517,86329.0,,,24518.0,http://www.srcinc.com/what-we-do/product.aspx?id=133,56.5,enallylpropymal,O=C1NC(=O)N(C)C(=O)C1(CC=C)C(C)C,PHYSPROP
19644,10377.0,,,19645.0,http://www.srcinc.com/what-we-do/product.aspx?id=133,49.0,tropacocaine,CN3C1CCC3CC(C1)OC(=O)c2ccccc2,PHYSPROP
16871,3821.0,,,16872.0,http://www.drugbank.ca/drugs/DB00186,167.0,Lorazepam,Clc3ccccc3C2=NC(O)C(=O)Nc1ccc(Cl)cc12,DrugBank
2506,14205.0,,,2507.0,http://www.alfa.com/en/GP100W.pgm?DSSTK=B21551,-63.0,2-chlorostyrene,C=Cc1ccccc1Cl,Alfa Aesar
18598,13846.0,,,18599.0,http://www.srcinc.com/what-we-do/product.aspx?id=133,-106.7,methylene cyclohexane,C=C1CCCCC1,PHYSPROP
24976,241192.0,,,24977.0,http://www.srcinc.com/what-we-do/product.aspx?id=133,253.0,digitoxigenin,OC5CCC4(C)C(CCC1C4CCC2(C)C(CCC12O)C3=CC(=O)OC3)C5,PHYSPROP
16406,84.0,,,16407.0,http://www.drugbank.ca/drugs/DB03644,240.0,3-Hydroxyanthranilic Acid,Nc1c(cccc1O)C(=O)O,DrugBank
14324,11390.0,,,14325.0,http://www.amazon.com/dp/B003XEQTLE,56.0,"3,4-dinitrotoluene",O=[N+]([O-])c1cc(C)ccc1[N+]([O-])=O,Aldrich Chemical Company; Aldrich Catalog-Handbook of Fine Chemicals; Milwaukee; WI; 1984.
27240,13001610.0,,,27241.0,http://scripts.iucr.org/cgi-bin/paper?ac6220,228.35,"4-[(E)-(3,5-Dibromo-2-hydroxybenzylidene)amino]-1,5-dimethyl-2-phenyl-1,2-dihydro-3H-pyrazol-3-one",Brc1cc(c(O)c(Br)c1)C=NC=3C(=O)N(c2ccccc2)N(C=3C)C,IUCr
16009,7234.0,,,16010.0,http://msds.chem.ox.ac.uk/,-57.0,N-Methylaniline,CNc1ccccc1,academic website
8378,66650.0,,,8379.0,http://www.alfa.com/en/GP100W.pgm?DSSTK=L19427,95.0,quinoline-2-carbonitrile,c1ccc2c(c1)ccc(n2)C#N,Alfa Aesar
2467,5324011.0,,,2468.0,http://www.alfa.com/en/GP100W.pgm?DSSTK=H27359,212.0,2-chloro-D-phenylalanine,c1ccc(c(c1)C[C@H](C(=O)O)N)Cl,Alfa Aesar
27078,24731227.0,,,27079.0,http://scripts.iucr.org/cgi-bin/paper?ci6049,159.85,"(1R,5S)-1,5-Dichloro-3,6,6-triphenyl-3-azabicyclo[3.2.0]heptane-2,4-dione",O=C4N(c1ccccc1)C(=O)[C@]5(Cl)CC(c2ccccc2)(c3ccccc3)[C@]45Cl,IUCr
28522,331.0,,,28523.0,http://dx.doi.org/10.1016/j.chemosphere.2013.10.095,159.0,Salicylic acid,C1=CC=C(C(=C1)C(=O)O)O,Abraham M.H. and Acree Jr. W.E. The solubility of liquid and solid compounds in dry octan-1-ol. Chemosphere (2013)
28166,8067.0,,,28167.0,http://dx.doi.org/10.1080/10629360701430124,229.0,hexachlorobenzene,c1(c(c(c(c(c1Cl)Cl)Cl)Cl)Cl)Cl,RAEVSKY OA; PERLOVICH GL and SCHAPER K-J. Physicochemical properties/descriptors governing the solubility and partitioning of chemicals in water-solvent-gas systems. Part 2. Solubility in 1-octanol. SAR and QSAR in Environmental Research Vol. 18 Nos. 5–6 July–September 2007 543–578
26106,10440764.0,,,26107.0,http://www.srcinc.com/what-we-do/product.aspx?id=133,181.0,"2-furansulfonamide, 4-(4-methoxybenzoyl)-",O=C(c1coc(c1)S(=O)(N)=O)c2ccc(OC)cc2,PHYSPROP
23007,59691.0,,,23008.0,http://www.srcinc.com/what-we-do/product.aspx?id=133,48.0,"1-propanone, 1-(4-bromophenyl)-",O=C(CC)c1ccc(Br)cc1,PHYSPROP
18724,13171.0,x,salt - AL,18725.0,http://www.srcinc.com/what-we-do/product.aspx?id=133,187.0,benzacine hydrochloride,OC(C(=O)OCCN(C)C)(c1ccccc1)c2ccccc2,PHYSPROP
27525,10892.0,,,27526.0,http://chemspider.com/10892,101.0,2-methoxybenzoic acid,O=C(O)c1ccccc1OC,EPISuite-ChemSpider
17808,20829.0,,,17809.0,http://www.srcinc.com/what-we-do/product.aspx?id=133,79.5,a-(a-aminopropyl)benzyl alcohol,OC(C(N)CC)c1ccccc1,PHYSPROP
11845,2029965.0,,,11846.0,http://dx.doi.org/10.1021/ci0500132,72.0,"N-(3-chloro-4-fluorophenyl)-3,3,3-trifluoro-2-methyl-2-(trifluoromethyl)propanamide",Clc1cc(NC(=O)C(C)(C(F)(F)F)C(F)(F)F)ccc1F,Karthikeyan M.; Glen R.C.; Bender A. General melting point prediction based on a diverse compound dataset and artificial neural networks. J. Chem. Inf. Model.; 2005; 45(3); 581-3428
3466,9063669.0,,,3467.0,http://www.alfa.com/en/GP100W.pgm?DSSTK=H32940,189.0,"3,5-difluorosalicylic acid",c1c(cc(c(c1C(=O)O)O)F)F,Alfa Aesar
4614,80907.0,,,4615.0,http://www.alfa.com/en/GP100W.pgm?DSSTK=H27276,84.0,4-anilino-1-methylpiperidine,CN1CCC(CC1)Nc2ccccc2,Alfa Aesar
12049,2029346.0,,,12050.0,http://dx.doi.org/10.1021/ci0500132,199.0,"6-(2-methylphenyl)-3-phenyl-6,7-dihydro-5H-[1,2,4]triazolo[3,4-b][1,3,5]thiadiazine",S1CN(C[nH0]2c1[nH0][nH0]c2c1ccccc1)c1ccccc1C,Karthikeyan M.; Glen R.C.; Bender A. General melting point prediction based on a diverse compound dataset and artificial neural networks. J. Chem. Inf. Model.; 2005; 45(3); 581-3632
474,7205.0,,,475.0,http://www.alfa.com/en/GP100W.pgm?DSSTK=B22871,-17.0,"1,4-diisopropylbenzene",CC(C)c1ccc(cc1)C(C)C,Alfa Aesar
6355,8950.0,,,6356.0,http://www.alfa.com/en/GP100W.pgm?DSSTK=A12965,-50.0,allylbenzene,C=CCc1ccccc1,Alfa Aesar
6591,203785.0,,,6592.0,http://www.alfa.com/en/GP100W.pgm?DSSTK=L03919,-19.0,butadiene diepoxide,C1[C@@H](O1)[C@@H]2CO2,Alfa Aesar
7801,848066.0,,,7802.0,http://www.alfa.com/en/GP100W.pgm?DSSTK=B21130,184.0,N(alpha)-fmoc-l-tryptophan,c1ccc2c(c1)c(c[nH]2)C[C@@H](C(=O)O)NC(=O)OCC3c4ccccc4-c5c3cccc5,Alfa Aesar
13681,124377.0,,,13682.0,http://www.amazon.com/dp/088318205X,-1.0,"2,3,3-trimethyl-2-pentanol",CC(C)(CC)C(C)(C)O,Wilhoit R. C. Physical and Thermodynamic Properties of Aliphatic Alcohols. (Supplement to Journal of Physical and Chemical Reference Data; Vol 2; No. 1.); American Chemical Society; Washington; 1973.
6922,2839.0,,,6923.0,http://www.alfa.com/en/GP100W.pgm?DSSTK=L08800,157.0,dimethyl tetrachloroterephthalate,COC(=O)c1c(c(c(c(c1Cl)Cl)C(=O)OC)Cl)Cl,Alfa Aesar
25340,610569.0,,,25341.0,http://www.srcinc.com/what-we-do/product.aspx?id=133,100.5,benzylidenephthalide,O=C3O/C(=C/c1ccccc1)c2ccccc23,PHYSPROP
14945,650.0,,,14946.0,http://msds.chem.ox.ac.uk/,75.0,"1,3-Dihydroxyacetone",OCC(=O)CO,academic website
6459,2056575.0,,,6460.0,http://www.alfa.com/en/GP100W.pgm?DSSTK=L19631,114.0,benzothiazole-2-carbonyl chloride,c1ccc2c(c1)nc(s2)C(=O)Cl,Alfa Aesar
2891,310867.0,,,2892.0,http://www.alfa.com/en/GP100W.pgm?DSSTK=A11392,106.0,2-methyl-5-nitrobenzonitrile,Cc1ccc(cc1C#N)[N+](=O)[O-],Alfa Aesar
25582,4444774.0,,,25583.0,http://www.srcinc.com/what-we-do/product.aspx?id=133,230.5,umbelliferone,Oc1ccc2C=CC(=O)Oc2c1,PHYSPROP
24866,190760.0,,,24867.0,http://www.srcinc.com/what-we-do/product.aspx?id=133,22.0,"butanedioic acid, 2,3-dihydroxy-,dibutyl ester",OC(C(=O)OCCCC)C(O)C(=O)OCCCC,PHYSPROP