,csid,donotuse,donotusebecause,key,link,mpC,name,smiles,source
3940,2055013.0,,,3941.0,http://www.alfa.com/en/GP100W.pgm?DSSTK=H26690,106.0,3-fluoro-4-methylphenylacetic acid,Cc1ccc(cc1F)CC(=O)O,Alfa Aesar
4493,261880.0,,,4494.0,http://www.alfa.com/en/GP100W.pgm?DSSTK=A11755,137.0,"4,6-diphenyl-2-pyrone",c1ccc(cc1)c2cc(oc(=O)c2)c3ccccc3,Alfa Aesar
5482,16594.0,,,5483.0,http://www.alfa.com/en/GP100W.pgm?DSSTK=A12347,130.0,4-nitrohippuric acid,c1cc(ccc1C(=O)NCC(=O)O)[N+](=O)[O-],Alfa Aesar
19746,10037.0,,,19747.0,http://www.srcinc.com/what-we-do/product.aspx?id=133,88.5,hexacosanoic acid,O=C(O)CCCCCCCCCCCCCCCCCCCCCCCCC,PHYSPROP
769,120577.0,,,770.0,http://www.alfa.com/en/GP100W.pgm?DSSTK=A17514,18.0,"1,1,1-tris(chloromethyl)ethane",CC(CCl)(CCl)CCl,Alfa Aesar
23766,66659.0,,,23767.0,http://www.srcinc.com/what-we-do/product.aspx?id=133,37.0,"morpholine, 4-(chloroacetyl)-",O=C(CCl)N1CCOCC1,PHYSPROP
11751,2030497.0,,,11752.0,http://dx.doi.org/10.1021/ci0500132,73.0,"1,4-bis(2-bromoethyl)benzene",BrCCc1ccc(cc1)CCBr,Karthikeyan M.; Glen R.C.; Bender A. General melting point prediction based on a diverse compound dataset and artificial neural networks. J. Chem. Inf. Model.; 2005; 45(3); 581-3334
10071,3600263.0,,,10072.0,http://dx.doi.org/10.1021/ci0500132,139.0,"3,4,4a,5,6,10b-hexahydro-2H-benzo[h]chromen-2-one",O=C1OC2c3ccccc3CCC2CC1,Karthikeyan M.; Glen R.C.; Bender A. General melting point prediction based on a diverse compound dataset and artificial neural networks. J. Chem. Inf. Model.; 2005; 45(3); 581-1654
13424,4516599.0,,,13425.0,http://www.amazon.com/dp/B002IYRJWI,-119.0,cis-4-octene,CCC/C=CCCC,American Petroleum Institute. Research Project 44; Selected Values of Properties of Hydrocarbons and Related Compounds. Texas A & M University; College Station; TX; 1973.
24228,76852.0,,,24229.0,http://www.srcinc.com/what-we-do/product.aspx?id=133,34.8,4-methoxy-naphthalene-1-carbaldehyde,O=Cc1ccc(OC)c2ccccc12,PHYSPROP
19666,10328.0,,,19667.0,http://www.srcinc.com/what-we-do/product.aspx?id=133,43.0,2-iodophenol,Ic1ccccc1O,PHYSPROP
25004,270129.0,,,25005.0,http://www.srcinc.com/what-we-do/product.aspx?id=133,86.5,medinoterb acetate,O=C(C)Oc1c(cc(c(C)c1[N+]([O-])=O)[N+]([O-])=O)C(C)(C)C,PHYSPROP
25202,515853.0,,,25203.0,http://www.srcinc.com/what-we-do/product.aspx?id=133,82.0,"acetic acid, [(4-bromophenyl)sulfonyl]-, methyl",O=S(=O)(CC(=O)OC)c1ccc(Br)cc1,PHYSPROP
9138,10483947.0,,,9139.0,http://dx.doi.org/10.1021/ci0500132,148.0,"ethyl 5-(1,3-benzothiazol-2-yl)-6-imino-4-methyl-1-phenyl-1,6-dihydropyridazine-3-carboxylate",s1c2ccccc2[nH0]c1C=1C(=N)N(N=C(C=1C)C(=O)OCC)c1ccccc1,Karthikeyan M.; Glen R.C.; Bender A. General melting point prediction based on a diverse compound dataset and artificial neural networks. J. Chem. Inf. Model.; 2005; 45(3); 581-719
21963,3070.0,,,21964.0,http://www.srcinc.com/what-we-do/product.aspx?id=133,161.5,dyphylline,OCC(O)Cn2cnc1c2C(=O)N(C)C(=O)N1C,PHYSPROP
21911,3233.0,,,21912.0,http://www.srcinc.com/what-we-do/product.aspx?id=133,253.0,proscar,CC(C)(C)NC(=O)C1CCC2C3CCC4NC(=O)C=CC4(C)C3CCC12C,PHYSPROP
949,7261.0,,,950.0,http://www.alfa.com/en/GP100W.pgm?DSSTK=L08311,115.0,2-(3-chlorophenoxy)propionic acid,CC(C(=O)O)Oc1cccc(c1)Cl,Alfa Aesar
25937,10178801.0,,,25938.0,http://www.srcinc.com/what-we-do/product.aspx?id=133,-4.0,"1,2,3,4-tetrachlorobuta-1,3-diene",ClC=C(/Cl)C(/Cl)=CCl,PHYSPROP
20271,8089.0,,,20272.0,http://www.srcinc.com/what-we-do/product.aspx?id=133,123.7,efloxate,O=C(OCC)COc1ccc2c(c1)OC(=CC2=O)c3ccccc3,PHYSPROP
27661,10980.0,,,27662.0,http://dx.doi.org/10.1080/10629360701430124,253.0,4-bromobenzoic acid,O=C(O)c1ccc(Br)cc1,RAEVSKY OA; PERLOVICH GL and SCHAPER K-J. Physicochemical properties/descriptors governing the solubility and partitioning of chemicals in water-solvent-gas systems. Part 2. Solubility in 1-octanol. SAR and QSAR in Environmental Research Vol. 18 Nos. 5–6 July–September 2007 543–578
6129,2015065.0,,,6130.0,http://www.alfa.com/en/GP100W.pgm?DSSTK=L11209,115.0,6-fluorochroman-4-one,c1cc2c(cc1F)C(=O)CCO2,Alfa Aesar
24459,84266.0,,,24460.0,http://www.srcinc.com/what-we-do/product.aspx?id=133,251.5,diclomezine,Clc1cc(cc(Cl)c1C)C=2C=CC(=O)NN=2,PHYSPROP
12724,86116.0,,,12725.0,http://dx.doi.org/10.1021/ci0500132,128.0,"6,6-di(ethylthio)hexane-1,2,3,4,5-pentaol",S(CC)C(SCC)C(O)C(O)C(O)C(O)CO,Karthikeyan M.; Glen R.C.; Bender A. General melting point prediction based on a diverse compound dataset and artificial neural networks. J. Chem. Inf. Model.; 2005; 45(3); 581-4307
12913,13507.0,,,12914.0,http://dx.doi.org/10.1021/ci0500132,160.0,Bucetalon,O=C(Nc1ccc(OCC)cc1)CC(O)C,Karthikeyan M.; Glen R.C.; Bender A. General melting point prediction based on a diverse compound dataset and artificial neural networks. J. Chem. Inf. Model.; 2005; 45(3); 581-4496
19198,11553.0,,,19199.0,http://www.srcinc.com/what-we-do/product.aspx?id=133,-80.6,diethylcyanamide,N#CN(CC)CC,PHYSPROP
8290,21109330.0,,,8291.0,http://www.alfa.com/en/GP100W.pgm?DSSTK=B25006,44.0,"pinacol, anhydrous",CC(C)(C(C)(C)O)O,Alfa Aesar
9401,4898256.0,,,9402.0,http://dx.doi.org/10.1021/ci0500132,188.0,"4-{(2Z)-2-[3-methyl-1-(morpholin-4-ylmethyl)-5-oxo-1,5-dihydro-4H-pyrazol-4-ylidene]hydrazino}benzoic acid",O=C1N(N=C(C)C1=NNc1ccc(cc1)C(=O)O)CN1CCOCC1,Karthikeyan M.; Glen R.C.; Bender A. General melting point prediction based on a diverse compound dataset and artificial neural networks. J. Chem. Inf. Model.; 2005; 45(3); 581-984
15304,6313.0,,,15305.0,http://msds.chem.ox.ac.uk/,-65.0,2-Methylpropanal,CC(C)C=O,academic website
23609,63851.0,,,23610.0,http://www.srcinc.com/what-we-do/product.aspx?id=133,34.0,"2,4-dimethyl-pentan-3-one oxime",CC(C)/C(=NO)C(C)C,PHYSPROP
6368,558329.0,,,6369.0,http://www.alfa.com/en/GP100W.pgm?DSSTK=L04133,175.0,alpha-cyanocinnamic acid,c1ccc(cc1)/C=C(C#N)/C(=O)O,Alfa Aesar
21573,4861.0,,,21574.0,http://www.srcinc.com/what-we-do/product.aspx?id=133,80.0,ramifenazone,CC(C)NC=2C(=O)N(c1ccccc1)N(C)C=2C,PHYSPROP
17325,8788.0,,,17326.0,http://dx.doi.org/10.1021/ci700307p,273.5,perylene,c1ccc5cccc4c5c1c2cccc3cccc4c23,Hughes LD; Palmer DS; Nigsch F and Mitchell JBO. 2008 Why are some properties more difficult to predict than others? A study of QSPR models of solubility; melting point and LogP. J. Chem. Inf. Model. 2008. 48 (1). pp 220?473
641,22547.0,,,642.0,http://www.alfa.com/en/GP100W.pgm?DSSTK=A13851,151.0,"1,2-phenylenediacetic acid",c1ccc(c(c1)CC(=O)O)CC(=O)O,Alfa Aesar
10543,2035344.0,,,10544.0,http://dx.doi.org/10.1021/ci0500132,279.0,"N,N',N'',N'''-biphenyl-2,2',4,4'-tetrayltetrabenzamide",O=C(Nc1ccc(c(NC(=O)c2ccccc2)c1)c1ccc(NC(=O)c2ccccc2)cc1NC(=O)c1ccccc1)c1ccccc1,Karthikeyan M.; Glen R.C.; Bender A. General melting point prediction based on a diverse compound dataset and artificial neural networks. J. Chem. Inf. Model.; 2005; 45(3); 581-2126
24895,198474.0,,,24896.0,http://www.srcinc.com/what-we-do/product.aspx?id=133,134.0,"phthalimide,n-methyl",Cc1cccc2C(=O)NC(=O)c12,PHYSPROP
13055,2710.0,,,13056.0,http://dx.doi.org/10.1021/ci0500132,147.0,Clotrimazole,Clc1ccccc1C([nH0]1c[nH0]cc1)(c1ccccc1)c1ccccc1,Karthikeyan M.; Glen R.C.; Bender A. General melting point prediction based on a diverse compound dataset and artificial neural networks. J. Chem. Inf. Model.; 2005; 45(3); 581-4638
24724,120166.0,,,24725.0,http://www.srcinc.com/what-we-do/product.aspx?id=133,-82.0,"4-heptanol, 4-methyl-",CC(O)(CCC)CCC,PHYSPROP
28258,7176.0,,,28259.0,http://dx.doi.org/10.1016/j.chemosphere.2013.10.095,131.0,Methyl 4-hydroxybenzoate,COC(=O)C1=CC=C(C=C1)O,Abraham M.H. and Acree Jr. W.E. The solubility of liquid and solid compounds in dry octan-1-ol. Chemosphere (2013)
26579,13863629.0,,,26580.0,http://www.srcinc.com/what-we-do/product.aspx?id=133,-38.1,fufural,O=Cc1ccco1,PHYSPROP
12666,132972.0,,,12667.0,http://dx.doi.org/10.1021/ci0500132,41.0,2-(4-methylphenyl)propionicacid,O=C(O)C(C)c1ccc(C)cc1,Karthikeyan M.; Glen R.C.; Bender A. General melting point prediction based on a diverse compound dataset and artificial neural networks. J. Chem. Inf. Model.; 2005; 45(3); 581-4249
71,12501.0,,,72.0,http://www.alfa.com/en/GP100W.pgm?DSSTK=B20602,-11.0,1-phenylcyclohexene,c1ccc(cc1)C2=CCCCC2,Alfa Aesar
2089,27488.0,,,2090.0,http://www.alfa.com/en/GP100W.pgm?DSSTK=L11062,61.0,"2-bromo-1,3-dichlorobenzene",c1cc(c(c(c1)Cl)Br)Cl,Alfa Aesar
14177,13851576.0,,,14178.0,http://www.amazon.com/dp/B003XEQTLE,-2.0,benzyl_bromide,BrCc1ccccc1,Aldrich Chemical Company; Aldrich Catalog-Handbook of Fine Chemicals; Milwaukee; WI; 1984.
7959,5383778.0,,,7960.0,http://www.alfa.com/en/GP100W.pgm?DSSTK=H51963,77.0,N-boc-3-fluoro-d-phenylalanine,CC(C)(C)OC(=O)N[C@H](Cc1cccc(c1)F)C(=O)O,Alfa Aesar
25255,553383.0,,,25256.0,http://www.srcinc.com/what-we-do/product.aspx?id=133,249.0,"cinnamic acid, p-chloro-",Clc1ccc(/C=C/C(=O)O)cc1,PHYSPROP
7168,553344.0,,,7169.0,http://www.alfa.com/en/GP100W.pgm?DSSTK=A12906,7.0,ethyl cinnamate,CCOC(=O)/C=C/c1ccccc1,Alfa Aesar
25858,5020878.0,,,25859.0,http://www.srcinc.com/what-we-do/product.aspx?id=133,116.0,azoxystrobin,O=C(OC)/C(=COC)c3ccccc3Oc2cc(Oc1ccccc1C#N)ncn2,PHYSPROP
19551,10684.0,,,19552.0,http://www.srcinc.com/what-we-do/product.aspx?id=133,26.0,benzylhydrazine,NNCc1ccccc1,PHYSPROP
11049,2033727.0,,,11050.0,http://dx.doi.org/10.1021/ci0500132,97.0,"1,3-bis(chloromethyl)-4-methoxy-2-methylbenzene",ClCc1ccc(OC)c(CCl)c1C,Karthikeyan M.; Glen R.C.; Bender A. General melting point prediction based on a diverse compound dataset and artificial neural networks. J. Chem. Inf. Model.; 2005; 45(3); 581-2632
7659,72362.0,,,7660.0,http://www.alfa.com/en/GP100W.pgm?DSSTK=B25330,70.0,methyl coumalate,COC(=O)c1ccc(=O)oc1,Alfa Aesar
23174,61255.0,x,wrong sign - mp cannot be above bp JCB,23175.0,http://www.srcinc.com/what-we-do/product.aspx?id=133,114.6,"1,1,2-trichloro-3,3,3-trifluoro-1-propene",Cl/C(Cl)=C(/Cl)C(F)(F)F,PHYSPROP
17659,23480.0,,,17660.0,http://www.srcinc.com/what-we-do/product.aspx?id=133,-107.0,boron trichloride,Cl[B@](Cl)Cl,PHYSPROP
2702,9136.0,,,2703.0,http://www.alfa.com/en/GP100W.pgm?DSSTK=A13676,203.0,"2-hydroxy-4,6-dimethylpyrimidine",Cc1cc(nc(=O)[nH]1)C,Alfa Aesar
9177,10483067.0,,,9178.0,http://dx.doi.org/10.1021/ci0500132,221.0,"4-hydroxy-1,8,8-trimethylbicyclo[3.2.1]oct-3-en-2-one",O=C1C=C(O)C2CCC1(C)C2(C)C,Karthikeyan M.; Glen R.C.; Bender A. General melting point prediction based on a diverse compound dataset and artificial neural networks. J. Chem. Inf. Model.; 2005; 45(3); 581-760
18135,16521.0,,,18136.0,http://www.srcinc.com/what-we-do/product.aspx?id=133,6.0,hexaethylene glycol,OCCOCCOCCOCCOCCOCCO,PHYSPROP
11970,2029650.0,,,11971.0,http://dx.doi.org/10.1021/ci0500132,181.0,"3-(3,12-dihydroxy-10,13-dimethyl-2,3,4,5,8,9,10,11,12,13,14,15,16,17-tetradecahydro-1H-cyclopenta[a]phenanthren-17-yl)butanoic acid (non-preferred name)",O=C(O)CC(C)C1CCC2C3C=CC4CC(O)CCC4(C)C3CC(O)C21C,Karthikeyan M.; Glen R.C.; Bender A. General melting point prediction based on a diverse compound dataset and artificial neural networks. J. Chem. Inf. Model.; 2005; 45(3); 581-3553
22569,34207.0,,,22570.0,http://www.srcinc.com/what-we-do/product.aspx?id=133,264.0,"1,2,3,4,6,7,8-heptachlorodibenzo-p-dioxin",Clc2cc1Oc3c(Cl)c(Cl)c(Cl)c(Cl)c3Oc1c(Cl)c2Cl,PHYSPROP
7712,122904.0,,,7713.0,http://www.alfa.com/en/GP100W.pgm?DSSTK=L15589,92.0,methylboronic acid,B(C)(O)O,Alfa Aesar
6814,70573.0,,,6815.0,http://www.alfa.com/en/GP100W.pgm?DSSTK=B20099,61.0,dicyclohexylmethanol,C1CCC(CC1)C(C2CCCCC2)O,Alfa Aesar
24745,121113.0,,,24746.0,http://www.srcinc.com/what-we-do/product.aspx?id=133,-118.5,"cyclopentene, 1-ethyl-",CCC1=CCCC1,PHYSPROP
21953,3127.0,,,21954.0,http://www.srcinc.com/what-we-do/product.aspx?id=133,141.5,"cholestan-3-ol, (3.beta.,5.alpha.)-",CC(C)CCCC(C)C1CCC2C3CCC4CC(O)CCC4(C)C3CCC12C,PHYSPROP
24250,77697.0,,,24251.0,http://www.srcinc.com/what-we-do/product.aspx?id=133,66.3,propaquizafop,C/C(C)=NOCCOC(=O)C(C)Oc1ccc(cc1)Oc2cnc3cc(Cl)ccc3n2,PHYSPROP
16452,57718.0,,,16453.0,http://www.drugbank.ca/drugs/DB00220,349.84,Nelfinavir,Oc1cccc(c1C)C(=O)N[C@@H](CSc2ccccc2)[C@H](O)CN3C[C@H]4CCCC[C@H]4C[C@H]3C(=O)NC(C)(C)C,DrugBank
21534,5138.0,,,21535.0,http://www.srcinc.com/what-we-do/product.aspx?id=133,167.0,sulfamethoxazole,Cc2cc(NS(=O)(=O)c1ccc(N)cc1)no2,PHYSPROP
11877,2029922.0,,,11878.0,http://dx.doi.org/10.1021/ci0500132,49.0,"N,N-dibenzyl-2,2,3,3,4,4,5,5,6,6,7,7,8,8,9,9,9-heptadecafluorononanamide",FC(F)(F)C(F)(F)C(F)(F)C(F)(F)C(F)(F)C(F)(F)C(F)(F)C(F)(F)C(=O)N(Cc1ccccc1)Cc1ccccc1,Karthikeyan M.; Glen R.C.; Bender A. General melting point prediction based on a diverse compound dataset and artificial neural networks. J. Chem. Inf. Model.; 2005; 45(3); 581-3460
24318,78926.0,,,24319.0,http://www.srcinc.com/what-we-do/product.aspx?id=133,-48.0,"silane, chloro(dichloromethyl)dimethyl-",ClC(Cl)[Si](C)(C)Cl,PHYSPROP
24957,226296.0,,,24958.0,http://www.srcinc.com/what-we-do/product.aspx?id=133,135.0,"n,n'-(4-methylphenyl)hydrazine",Cc2ccc(NNc1ccc(C)cc1)cc2,PHYSPROP
6102,518903.0,,,6103.0,http://www.alfa.com/en/GP100W.pgm?DSSTK=A13425,243.0,6-chloro-2h-chromene-3-carboxylic acid,c1cc2c(cc1Cl)C=C(CO2)C(=O)O,Alfa Aesar
1535,63444.0,,,1536.0,http://www.alfa.com/en/GP100W.pgm?DSSTK=A11949,86.0,"2,4-dimethylimidazole",Cc1c[nH]c(n1)C,Alfa Aesar
10995,2033813.0,,,10996.0,http://dx.doi.org/10.1021/ci0500132,53.0,"3-methylbicyclo[4.2.0]octa-1,3,5-trien-7-one",O=C1Cc2cc(C)ccc21,Karthikeyan M.; Glen R.C.; Bender A. General melting point prediction based on a diverse compound dataset and artificial neural networks. J. Chem. Inf. Model.; 2005; 45(3); 581-2578
13733,8186.0,,,13734.0,http://www.amazon.com/dp/B003XEQTLE,24.0,p-methylacetophenone,Cc1ccc(cc1)C(=O)C,Aldrich Chemical Company; Aldrich Catalog-Handbook of Fine Chemicals; Milwaukee; WI; 1984.
4920,13066.0,,,4921.0,http://www.alfa.com/en/GP100W.pgm?DSSTK=A12648,100.0,4-chloro-3-nitrobenzonitrile,c1cc(c(cc1C#N)[N+](=O)[O-])Cl,Alfa Aesar
18228,15983.0,,,18229.0,http://www.srcinc.com/what-we-do/product.aspx?id=133,192.5,4-acetoxybenzoic acid,O=C(C)Oc1ccc(cc1)C(=O)O,PHYSPROP
11262,2032590.0,,,11263.0,http://dx.doi.org/10.1021/ci0500132,65.0,2-[Bis(5-methyl-2-furyl)methyl]phenol,Oc1ccccc1C(c1oc(C)cc1)c1oc(C)cc1,Karthikeyan M.; Glen R.C.; Bender A. General melting point prediction based on a diverse compound dataset and artificial neural networks. J. Chem. Inf. Model.; 2005; 45(3); 581-2845
12153,2011418.0,,,12154.0,http://dx.doi.org/10.1021/ci0500132,118.0,"benzyl 1,6-dimethyl-2-oxo-4-phenyl-1,2,3,4-tetrahydropyrimidine-5-carboxylate",O=C1NC(c2ccccc2)C(=C(N1C)C)C(=O)OCc1ccccc1,Karthikeyan M.; Glen R.C.; Bender A. General melting point prediction based on a diverse compound dataset and artificial neural networks. J. Chem. Inf. Model.; 2005; 45(3); 581-3736
415,22672.0,,,416.0,http://www.alfa.com/en/GP100W.pgm?DSSTK=B23885,52.0,"1,8-diaminooctane",C(CCCCN)CCCN,Alfa Aesar
1447,453869.0,,,1448.0,http://www.alfa.com/en/GP100W.pgm?DSSTK=L06051,177.0,"2,4-dichloro-6,7-dimethoxyquinazoline",COc1cc2c(cc1OC)nc(nc2Cl)Cl,Alfa Aesar
15496,12687.0,,,15497.0,http://msds.chem.ox.ac.uk/,78.0,4-Nitrophenyl acetate,O=C(C)Oc1ccc(cc1)[N+]([O-])=O,academic website
9908,4644356.0,,,9909.0,http://dx.doi.org/10.1021/ci0500132,121.0,"6-[(1E)-prop-1-en-1-yl]-3-pyridin-3-yl-5,6-dihydro[1,2,4]triazolo[3,4-b][1,3,4]thiadiazole",S1c2[nH0][nH0]c([nH0]2NC1C=CC)c1c[nH0]ccc1,Karthikeyan M.; Glen R.C.; Bender A. General melting point prediction based on a diverse compound dataset and artificial neural networks. J. Chem. Inf. Model.; 2005; 45(3); 581-1491
9294,7855501.0,,,9295.0,http://dx.doi.org/10.1021/ci0500132,236.0,"(2E)-2-[1-(4,7,7-trimethylbicyclo[2.2.1]hept-2-yl)ethylidene]hydrazinecarboxamide",O=C(N)NN=C(C)C1CC2(C)CCC1C2(C)C,Karthikeyan M.; Glen R.C.; Bender A. General melting point prediction based on a diverse compound dataset and artificial neural networks. J. Chem. Inf. Model.; 2005; 45(3); 581-877
23768,66663.0,,,23769.0,http://www.srcinc.com/what-we-do/product.aspx?id=133,57.5,p-cyanoacetophenone,O=C(C)c1ccc(C#N)cc1,PHYSPROP
3416,81318.0,,,3417.0,http://www.alfa.com/en/GP100W.pgm?DSSTK=L12147,79.0,"3,5-dichloro-2-hydroxybenzenesulfonyl chloride",c1c(cc(c(c1S(=O)(=O)Cl)O)Cl)Cl,Alfa Aesar
15801,5439.0,,,15802.0,http://msds.chem.ox.ac.uk/,48.0,Ethyl carbamate,NC(=O)OCC,academic website
23310,62193.0,,,23311.0,http://www.srcinc.com/what-we-do/product.aspx?id=133,22.0,ammonium palmitate,O=C(CCCCCCCCCCCCCCC)ON,PHYSPROP
6732,122157.0,,,6733.0,http://www.alfa.com/en/GP100W.pgm?DSSTK=H27349,-140.0,cyclopentyl methyl ether,COC1CCCC1,Alfa Aesar
8032,11899.0,,,8033.0,http://www.alfa.com/en/GP100W.pgm?DSSTK=A18050,45.0,N-docosane,CCCCCCCCCCCCCCCCCCCCCC,Alfa Aesar
5509,7201.0,,,5510.0,http://www.alfa.com/en/GP100W.pgm?DSSTK=H30118,27.0,4-nitrostyrene,C=Cc1ccc(cc1)[N+](=O)[O-],Alfa Aesar
3218,19739.0,,,3219.0,http://www.alfa.com/en/GP100W.pgm?DSSTK=B20388,101.0,"3,3-dimethylglutaric acid",CC(C)(CC(=O)O)CC(=O)O,Alfa Aesar
24322,79211.0,,,24323.0,http://www.srcinc.com/what-we-do/product.aspx?id=133,147.0,2-(tert-butyl)anthracene,CC(C)(C)c1ccc2cc3ccccc3cc2c1,PHYSPROP
25348,628106.0,,,25349.0,http://www.srcinc.com/what-we-do/product.aspx?id=133,206.0,2-(trifluoromethyl)cinnamic acid,FC(F)(F)c1ccccc1/C=C/C(=O)O,PHYSPROP
9876,4644556.0,,,9877.0,http://dx.doi.org/10.1021/ci0500132,132.0,"dimethyl (2E,2'E)-3,3'-benzene-1,3-diylbisprop-2-enoate",O=C(OC)C=Cc1cccc(c1)C=CC(=O)OC,Karthikeyan M.; Glen R.C.; Bender A. General melting point prediction based on a diverse compound dataset and artificial neural networks. J. Chem. Inf. Model.; 2005; 45(3); 581-1459
8993,25957.0,,,8994.0,http://dx.doi.org/10.1021/ci020280x,95.0,thenaldine,CN1CCC(CC1)N(Cc2cccs2)c3ccccc3,Bergstrom C. A. S.; Norinder U.; Luthman K.; Artursson P. Molecular Descriptors Influencing Melting Point and Their Role in Classification of Solid Drugs. J. Chem. Inf. Comput. Sci.; (Article); 2003; 43(4); 1177-1440
23208,61425.0,,,23209.0,http://www.srcinc.com/what-we-do/product.aspx?id=133,67.0,"benzaldehyde, 3-ethoxy-2-hydroxy-",CCOc1cccc(C=O)c1O,PHYSPROP
1212,62756.0,,,1213.0,http://www.alfa.com/en/GP100W.pgm?DSSTK=B22600,89.0,"2,3,5,6-tetrafluorophenylhydrazine",c1c(c(c(c(c1F)F)NN)F)F,Alfa Aesar
18864,12494.0,,,18865.0,http://www.srcinc.com/what-we-do/product.aspx?id=133,-37.0,"benzene, 2-ethenyl-1,3,5-trimethyl-",Cc1cc(C)cc(C)c1C=C,PHYSPROP
26444,13835557.0,,,26445.0,http://www.srcinc.com/what-we-do/product.aspx?id=133,133.0,"1,2,3-trihydroxybenzene",Oc1cccc(O)c1O,PHYSPROP
20736,7154.0,,,20737.0,http://www.srcinc.com/what-we-do/product.aspx?id=133,74.0,"benzoyl chloride, 3,5-dinitro-",O=[N+]([O-])c1cc(cc(c1)[N+]([O-])=O)C(Cl)=O,PHYSPROP
19343,11248.0,,,19344.0,http://www.srcinc.com/what-we-do/product.aspx?id=133,171.5,"benzenamine, 3,3'-sulfonylbis-",Nc1cc(ccc1)S(=O)(=O)c2cc(N)ccc2,PHYSPROP
306,13875433.0,,,307.0,http://www.alfa.com/en/GP100W.pgm?DSSTK=A10635,-8.0,1-bromo-2-fluorobenzene,c1ccc(c(c1)F)Br,Alfa Aesar
20402,7818.0,,,20403.0,http://www.srcinc.com/what-we-do/product.aspx?id=133,160.5,3-ethoxy-1-propanol,CCOCCCO,PHYSPROP
16353,2714.0,,,16354.0,http://www.drugbank.ca/drugs/DB01553,203.0,Cloxazolam,Clc1ccccc1C34OCCN4CC(=O)Nc2ccc(Cl)cc23,DrugBank
15493,5882.0,,,15494.0,http://msds.chem.ox.ac.uk/,237.0,4-Nitrobenzoic acid,O=[N+]([O-])c1ccc(cc1)C(=O)O,academic website
24397,82833.0,,,24398.0,http://www.srcinc.com/what-we-do/product.aspx?id=133,222.5,teflubenzuron,Clc2cc(NC(=O)NC(=O)c1c(F)cccc1F)c(F)c(Cl)c2F,PHYSPROP
23397,62485.0,,,23398.0,http://www.srcinc.com/what-we-do/product.aspx?id=133,162.0,4-methylbenzamide,Cc1ccc(cc1)C(=O)N,PHYSPROP
8284,6621.0,,,8285.0,http://www.alfa.com/en/GP100W.pgm?DSSTK=A15516,74.0,phthalide,c1ccc2c(c1)COC2=O,Alfa Aesar
21286,6134.0,,,21287.0,http://www.srcinc.com/what-we-do/product.aspx?id=133,119.0,iodoform,IC(I)I,PHYSPROP
18421,14915.0,,,18422.0,http://www.srcinc.com/what-we-do/product.aspx?id=133,95.0,"benzene, 1,1'-sulfinylbis(4-methyl- (9ci)",Cc1ccc(cc1)S(=O)c2ccc(C)cc2,PHYSPROP
3334,6854.0,,,3335.0,http://www.alfa.com/en/GP100W.pgm?DSSTK=A10167,181.0,"3,4-dimethoxybenzoic acid",COc1ccc(cc1OC)C(=O)O,Alfa Aesar