,csid,donotuse,donotusebecause,key,link,mpC,name,smiles,source
9619,4645534.0,,,9620.0,http://dx.doi.org/10.1021/ci0500132,138.0,"2-[(Z)-1-(3-methylphenoxy)-2-(4-methylphenyl)ethenyl]-1,3-benzothiazole",s1c2ccccc2[nH0]c1C(Oc1cccc(C)c1)=Cc1ccc(C)cc1,Karthikeyan M.; Glen R.C.; Bender A. General melting point prediction based on a diverse compound dataset and artificial neural networks. J. Chem. Inf. Model.; 2005; 45(3); 581-1202
15620,6844.0,,,15621.0,http://msds.chem.ox.ac.uk/,128.0,"Biphenyl-4,4'-diamine",Nc1ccc(cc1)c2ccc(N)cc2,academic website
27192,21136433.0,,,27193.0,http://scripts.iucr.org/cgi-bin/paper?da1041,159.35,"4-(4-Methylphenyl)-3-(pyridin-3-yl)-1,2,4-oxadiazole-5(4H)-thione",S=C2ON=C(c1cnccc1)N2c3ccc(cc3)C,IUCr
7567,611542.0,,,7568.0,http://www.alfa.com/en/GP100W.pgm?DSSTK=B20586,62.0,methyl 3-methoxythiophene-2-carboxylate,COc1ccsc1C(=O)OC,Alfa Aesar
332,1246152.0,,,333.0,http://www.alfa.com/en/GP100W.pgm?DSSTK=H27580,47.0,1-boc-4-cyanopiperidine,CC(C)(C)OC(=O)N1CCC(CC1)C#N,Alfa Aesar
998,62394.0,,,999.0,http://www.alfa.com/en/GP100W.pgm?DSSTK=B23960,83.0,2-(bromoacetyl)naphthalene,c1ccc2cc(ccc2c1)C(=O)CBr,Alfa Aesar
3254,70654.0,,,3255.0,http://www.alfa.com/en/GP100W.pgm?DSSTK=L04779,80.0,"3,4,5-trimethoxybenzoyl chloride",COc1cc(cc(c1OC)OC)C(=O)Cl,Alfa Aesar
177,11121.0,,,178.0,http://www.alfa.com/en/GP100W.pgm?DSSTK=L11487,-119.0,1-heptene,CCCCCC=C,Alfa Aesar
151,205244.0,,,152.0,http://www.alfa.com/en/GP100W.pgm?DSSTK=H28170,101.0,"1-iodo-3,5-dinitrobenzene",c1c(cc(cc1[N+](=O)[O-])I)[N+](=O)[O-],Alfa Aesar
20673,7263.0,,,20674.0,http://www.srcinc.com/what-we-do/product.aspx?id=133,73.0,3-methoxy-n-phenylbenzenamine,COc2cccc(Nc1ccccc1)c2,PHYSPROP
28159,13328.0,,,28160.0,http://dx.doi.org/10.1016/j.chemosphere.2013.10.095,160.0,Heptachlor epoxide,C12C(C(C3C1O3)Cl)C4(C(=C(C2(C4(Cl)Cl)Cl)Cl)Cl)Cl,Abraham M.H. and Acree Jr. W.E. The solubility of liquid and solid compounds in dry octan-1-ol. Chemosphere (2013)
561,7172.0,,,562.0,http://www.alfa.com/en/GP100W.pgm?DSSTK=A11518,89.0,"1,3-dinitrobenzene",c1cc(cc(c1)[N+](=O)[O-])[N+](=O)[O-],Alfa Aesar
8128,11843.0,,,8129.0,http://www.alfa.com/en/GP100W.pgm?DSSTK=L10852,-100.0,N-pentyl acetate,CCCCCOC(=O)C,Alfa Aesar
7357,7069.0,,,7358.0,http://www.alfa.com/en/GP100W.pgm?DSSTK=L13240,-56.0,isobutyric anhydride,CC(C)C(=O)OC(=O)C(C)C,Alfa Aesar
26403,11595729.0,,,26404.0,http://www.srcinc.com/what-we-do/product.aspx?id=133,111.5,fenadiazole,Oc1ccccc1c2nnco2,PHYSPROP
23026,59951.0,,,23027.0,http://www.srcinc.com/what-we-do/product.aspx?id=133,187.0,8-quinolinecarboxylic acid,O=C(O)c1cccc2cccnc12,PHYSPROP
2488,157860.0,,,2489.0,http://www.alfa.com/en/GP100W.pgm?DSSTK=A13582,112.0,2-chlorophenoxyacetic acid hydrazide,c1ccc(c(c1)OCC(=O)NN)Cl,Alfa Aesar
2518,9507399.0,,,2519.0,http://www.alfa.com/en/GP100W.pgm?DSSTK=H25956,43.0,2-cyano-5-fluoropyridine,c1cc(ncc1F)C#N,Alfa Aesar
4731,713822.0,,,4732.0,http://www.alfa.com/en/GP100W.pgm?DSSTK=H32067,203.0,4-bromo-2-hydroxypyridine,c1cnc(cc1Br)O,Alfa Aesar
23152,61086.0,,,23153.0,http://www.srcinc.com/what-we-do/product.aspx?id=133,-11.7,"benzene, 1,4-difluoro-2-nitro-",Fc1ccc(F)cc1[N+](=O)[O-],PHYSPROP
12522,284177.0,,,12523.0,http://dx.doi.org/10.1021/ci0500132,118.0,"5-Methoxybenzofurazan, 1-oxide",[O-][nH0+]1o[nH0]c2cc(OC)ccc12,Karthikeyan M.; Glen R.C.; Bender A. General melting point prediction based on a diverse compound dataset and artificial neural networks. J. Chem. Inf. Model.; 2005; 45(3); 581-4105
377,2011202.0,,,378.0,http://www.alfa.com/en/GP100W.pgm?DSSTK=L18271,197.0,1-acetyl-5-bromo-7-nitroindoline,CC(=O)N1CCc2c1c(cc(c2)Br)[N+](=O)[O-],Alfa Aesar
13167,6146.0,,,13168.0,http://www.amazon.com/dp/B002IYRJWI,26.0,2-methyl-2-propanol,CC(C)(C)O,American Petroleum Institute. Research Project 44; Selected Values of Properties of Hydrocarbons and Related Compounds. Texas A & M University; College Station; TX; 1973.
14488,21111786.0,,,14489.0,http://www.amazon.com/dp/B003XEQTLE,54.0,m-bromonitrobenzene,O=[N+]([O-])c1cc(Br)ccc1,Aldrich Chemical Company; Aldrich Catalog-Handbook of Fine Chemicals; Milwaukee; WI; 1984.
9721,4645282.0,,,9722.0,http://dx.doi.org/10.1021/ci0500132,111.0,(2E)-1-(2-Furyl)-3-[5-(4-methylphenyl)-2-furyl]prop-2-en-1-one,O=C(C=Cc1oc(cc1)c1ccc(C)cc1)c1occc1,Karthikeyan M.; Glen R.C.; Bender A. General melting point prediction based on a diverse compound dataset and artificial neural networks. J. Chem. Inf. Model.; 2005; 45(3); 581-1304
12432,504793.0,,,12433.0,http://dx.doi.org/10.1021/ci0500132,70.0,"methyl 5-(2-hydroxy-2,5,5,8a-tetramethyldecahydronaphthalen-1-yl)-3-methylpentanoate",O=C(OC)CC(C)CCC1C(O)(C)CCC2C(C)(C)CCCC21C,Karthikeyan M.; Glen R.C.; Bender A. General melting point prediction based on a diverse compound dataset and artificial neural networks. J. Chem. Inf. Model.; 2005; 45(3); 581-4015
2309,2018329.0,,,2310.0,http://www.alfa.com/en/GP100W.pgm?DSSTK=B22310,136.0,2'-chloro-4'-(trifluoromethyl)acetanilide,CC(=O)Nc1ccc(cc1Cl)C(F)(F)F,Alfa Aesar
9951,4523506.0,,,9952.0,http://dx.doi.org/10.1021/ci0500132,228.0,"Naphthalene, 1-(2,4-dinitrostyryl)-",O=[N+]([O-])c1ccc(C=Cc2cccc3ccccc32)c([N+](=O)[O-])c1,Karthikeyan M.; Glen R.C.; Bender A. General melting point prediction based on a diverse compound dataset and artificial neural networks. J. Chem. Inf. Model.; 2005; 45(3); 581-1534
1971,108254.0,,,1972.0,http://www.alfa.com/en/GP100W.pgm?DSSTK=H27514,245.0,"2-amino-5-(4-pyridyl)-1,3,4-thiadiazole",c1cnccc1c2nnc(s2)N,Alfa Aesar
3180,2016140.0,,,3181.0,http://www.alfa.com/en/GP100W.pgm?DSSTK=B21661,164.0,3-(trifluoromethyl)benzeneboronic acid,B(c1cccc(c1)C(F)(F)F)(O)O,Alfa Aesar
16681,3644.0,,,16682.0,http://www.drugbank.ca/drugs/DB02325,-89.5,Isopropyl Alcohol,CC(C)O,DrugBank
6651,157979.0,,,6652.0,http://www.alfa.com/en/GP100W.pgm?DSSTK=A14422,201.0,chromone-3-carboxylic acid,c1ccc2c(c1)c(=O)c(co2)C(=O)O,Alfa Aesar
8890,4758.0,,,8891.0,http://dx.doi.org/10.1021/ci020280x,60.0,promethazine,CC(CN2c1ccccc1Sc3ccccc23)N(C)C,Bergstrom C. A. S.; Norinder U.; Luthman K.; Artursson P. Molecular Descriptors Influencing Melting Point and Their Role in Classification of Solid Drugs. J. Chem. Inf. Comput. Sci.; (Article); 2003; 43(4); 1177-1337
19209,11526.0,,,19210.0,http://www.srcinc.com/what-we-do/product.aspx?id=133,3.0,"carbonic acid, dimethyl ester",O=C(OC)OC,PHYSPROP
9809,4644741.0,,,9810.0,http://dx.doi.org/10.1021/ci0500132,180.0,N-(2-{(E)-2-[4-(acetylamino)phenyl]ethenyl}phenyl)acetamide,O=C(Nc1ccc(cc1)C=Cc1ccccc1NC(=O)C)C,Karthikeyan M.; Glen R.C.; Bender A. General melting point prediction based on a diverse compound dataset and artificial neural networks. J. Chem. Inf. Model.; 2005; 45(3); 581-1392
6277,14430.0,,,6278.0,http://www.alfa.com/en/GP100W.pgm?DSSTK=A15714,251.0,"9,10-diphenylanthracene",c1ccc(cc1)c2c3ccccc3c(c4c2cccc4)c5ccccc5,Alfa Aesar
10341,2036460.0,,,10342.0,http://dx.doi.org/10.1021/ci0500132,114.0,4-(2-ethenylphenyl)-1H-pyrazole,N=1NC=C(C=1)c1ccccc1C=C,Karthikeyan M.; Glen R.C.; Bender A. General melting point prediction based on a diverse compound dataset and artificial neural networks. J. Chem. Inf. Model.; 2005; 45(3); 581-1924
437,13839441.0,,,438.0,http://www.alfa.com/en/GP100W.pgm?DSSTK=A13998,-16.0,"1,5-pentanediol",C(CCO)CCO,Alfa Aesar
27471,4578417.0,,,27472.0,http://pubs.acs.org/doi/pdf/10.1021/ja01208a051,203.75,"1,3-Bis(4-hydroxyphenyl)-2-propen-1-one",OC1=CC=C(C=C1)C(C=CC2=CC=C(C=C2)O)=O,Journal of the American Chemical Society
12728,85501.0,,,12729.0,http://dx.doi.org/10.1021/ci0500132,253.0,9-Phenanthrenecarboxylic acid,O=C(O)c1cc2ccccc2c2ccccc21,Karthikeyan M.; Glen R.C.; Bender A. General melting point prediction based on a diverse compound dataset and artificial neural networks. J. Chem. Inf. Model.; 2005; 45(3); 581-4311
11550,2031111.0,,,11551.0,http://dx.doi.org/10.1021/ci0500132,174.0,"(4,6-dinitrobenzene-1,3-diyl)bis(phenylmethanone)",O=[N+]([O-])c1cc([N+](=O)[O-])c(cc1C(=O)c1ccccc1)C(=O)c1ccccc1,Karthikeyan M.; Glen R.C.; Bender A. General melting point prediction based on a diverse compound dataset and artificial neural networks. J. Chem. Inf. Model.; 2005; 45(3); 581-3133
5544,189960.0,,,5545.0,http://www.alfa.com/en/GP100W.pgm?DSSTK=H32101,240.0,4-phenyl-1(2h)-phthalazinone,c1ccc(cc1)c2c3ccccc3c(=O)[nH]n2,Alfa Aesar
11417,2031707.0,x,salt - AL,11418.0,http://dx.doi.org/10.1021/ci0500132,254.0,N-methyl-N-{4-[2-(1-methylquinolinium-2-yl)vinyl]phenyl}methanamine iodide,[I-].[nH0+]1(C)c(ccc2ccccc12)C=Cc1ccc(N(C)C)cc1,Karthikeyan M.; Glen R.C.; Bender A. General melting point prediction based on a diverse compound dataset and artificial neural networks. J. Chem. Inf. Model.; 2005; 45(3); 581-3000
3376,90613.0,,,3377.0,http://www.alfa.com/en/GP100W.pgm?DSSTK=A13492,133.0,"3,5-bis(trifluoromethyl)benzhydrazide",c1c(cc(cc1C(F)(F)F)C(F)(F)F)C(=O)NN,Alfa Aesar
19770,9972.0,,,19771.0,http://www.srcinc.com/what-we-do/product.aspx?id=133,-18.0,e-caprolactone,O=C1CCCCCO1,PHYSPROP
21319,6088.0,,,21320.0,http://www.srcinc.com/what-we-do/product.aspx?id=133,-66.4,methyl iodide,CI,PHYSPROP
375,33601.0,,,376.0,http://www.alfa.com/en/GP100W.pgm?DSSTK=B20212,177.0,1-acetyl-5-nitroindoline,CC(=O)N1CCc2c1ccc(c2)[N+](=O)[O-],Alfa Aesar
16283,21429752.0,,,16284.0,http://www.drugbank.ca/drugs/DB00646,160.0,Nystatin,O=C(O)C1C(O)CC(=O)CC(O)C(O)CCC(O)CC(O)CC(O)CC(=O)OC(C)C(C)C(O)C(C)C=CC=CCCC=CC=CC=CC=CC(CC1O)OC2O[C@H](C)[C@@H](O)[C@H](N)[C@@H]2O,DrugBank
25855,5020782.0,,,25856.0,http://www.srcinc.com/what-we-do/product.aspx?id=133,-1.0,"9-octadecenenitrile, (z)-",CCCCCCCCC=CCCCCCCCC#N,PHYSPROP
5813,2058382.0,,,5814.0,http://www.alfa.com/en/GP100W.pgm?DSSTK=H26272,118.0,5-chloro-2-(trifluoromethyl)phenylacetic acid,c1cc(c(cc1Cl)CC(=O)O)C(F)(F)F,Alfa Aesar
24502,85615.0,,,24503.0,http://www.srcinc.com/what-we-do/product.aspx?id=133,142.0,"methanimidamide, n,n'-diphenyl-",N(=C/Nc1ccccc1)c2ccccc2,PHYSPROP
7068,508604.0,,,7069.0,http://www.alfa.com/en/GP100W.pgm?DSSTK=L07989,51.0,ethyl 3-(4-methoxybenzoyl)propionate,CCOC(=O)CCC(=O)c1ccc(cc1)OC,Alfa Aesar
10428,2036175.0,,,10429.0,http://dx.doi.org/10.1021/ci0500132,90.0,"(1S,5R)-2,2,4,4-tetrachloro-6-methyl-8-oxabicyclo[3.2.1]oct-6-en-3-one",ClC1(Cl)C(=O)C(Cl)(Cl)C2OC1C=C2C,Karthikeyan M.; Glen R.C.; Bender A. General melting point prediction based on a diverse compound dataset and artificial neural networks. J. Chem. Inf. Model.; 2005; 45(3); 581-2011
27773,7553.0,,,27774.0,http://webbook.nist.gov/cgi/cbook.cgi?ID=C106956&Units=SI&Mask=7,-119.0,allyl bromide,C=CCBr,NIST Web Book
4081,71580.0,,,4082.0,http://www.alfa.com/en/GP100W.pgm?DSSTK=H30860,133.0,3-methyl-4-nitro-1h-pyrazole,Cc1c(c[nH]n1)[N+](=O)[O-],Alfa Aesar
14700,14585.0,,,14701.0,http://de.wikipedia.org/wiki/Beilsteins_Handbuch_der_Organischen_Chemie,114.0,4-iodobiphenyl,Ic1ccc(cc1)c2ccccc2,Beilstein F. K.; Beilsteins Handbuch der Organischen Chemie. Springer; Berlin; 1972.
11698,2030627.0,,,11699.0,http://dx.doi.org/10.1021/ci0500132,177.0,"4,4'-{[2-methyl-5-(1-methylethyl)benzene-1,4-diyl]di(E)diazene-2,1-diyl}dianiline",Nc1ccc(N=Nc2cc(c(N=Nc3ccc(N)cc3)cc2C)C(C)C)cc1,Karthikeyan M.; Glen R.C.; Bender A. General melting point prediction based on a diverse compound dataset and artificial neural networks. J. Chem. Inf. Model.; 2005; 45(3); 581-3281
1355,68224.0,,,1356.0,http://www.alfa.com/en/GP100W.pgm?DSSTK=L16645,-43.0,"2,4,6,8-tetramethyl-2,4,6,8-tetravinylcyclotetrasiloxane",C[Si]1(O[Si](O[Si](O[Si](O1)(C)C=C)(C)C=C)(C)C=C)C=C,Alfa Aesar
4320,67082.0,,,4321.0,http://www.alfa.com/en/GP100W.pgm?DSSTK=L18074,81.0,4'-(methylthio)acetophenone,CC(=O)c1ccc(cc1)SC,Alfa Aesar
2194,120188.0,,,2195.0,http://www.alfa.com/en/GP100W.pgm?DSSTK=L20132,99.0,2'-bromoacetanilide,CC(=O)Nc1ccccc1Br,Alfa Aesar
25731,4516959.0,,,25732.0,http://www.srcinc.com/what-we-do/product.aspx?id=133,35.0,"9-octadecenoic acid (z)-, 2,3-dihydroxypropyl es",OCC(O)COC(=O)CCCCCCCC=CCCCCCCCC,PHYSPROP
20905,6838.0,,,20906.0,http://www.srcinc.com/what-we-do/product.aspx?id=133,74.0,"oxazole, 2,5-diphenyl-",c1ccc(cc1)c2ncc(o2)c3ccccc3,PHYSPROP
12171,1626278.0,,,12172.0,http://dx.doi.org/10.1021/ci0500132,265.0,"5-{[5-(4-Methylphenyl)-2-furyl]methylene}pyrimidine-2,4,6(1H,3H,5H)-trione",O=C1NC(=O)C(=Cc2oc(cc2)c2ccc(C)cc2)C(=O)N1,Karthikeyan M.; Glen R.C.; Bender A. General melting point prediction based on a diverse compound dataset and artificial neural networks. J. Chem. Inf. Model.; 2005; 45(3); 581-3754
7006,4470639.0,,,7007.0,http://www.alfa.com/en/GP100W.pgm?DSSTK=A17894,84.0,D-ribose,C([C@H]([C@H]([C@H](C=O)O)O)O)O,Alfa Aesar
22357,834.0,,,22358.0,http://www.srcinc.com/what-we-do/product.aspx?id=133,293.0,leucine,CC(C)CC(N)C(=O)O,PHYSPROP
1783,4522575.0,,,1784.0,http://www.alfa.com/en/GP100W.pgm?DSSTK=B20353,125.0,"2,6-difluorocinnamic acid",c1cc(c(c(c1)F)/C=C/C(=O)O)F,Alfa Aesar
25566,4444100.0,,,25567.0,http://www.srcinc.com/what-we-do/product.aspx?id=133,347.5,apigenin,Oc1ccc(cc1)C3=CC(=O)c2c(cc(O)cc2O)O3,PHYSPROP
17126,10194104.0,,,17127.0,http://dx.doi.org/10.1021/ci700307p,98.0,cocaine,CN3[C@H]1CC[C@@H]3[C@H]([C@H](C1)OC(=O)c2ccccc2)C(=O)OC,Hughes LD; Palmer DS; Nigsch F and Mitchell JBO. 2008 Why are some properties more difficult to predict than others? A study of QSPR models of solubility; melting point and LogP. J. Chem. Inf. Model. 2008. 48 (1). pp 220?274
9081,10484182.0,,,9082.0,http://dx.doi.org/10.1021/ci0500132,295.0,"1-ethyl-4-hydroxy-3-{(Z)-[3-(4-hydroxy-1-methyl-2-oxo-1,2-dihydroquinolin-3-yl)-5-oxo-1,5-dihydro-4H-pyrazol-4-ylidene]methyl}quinolin-2(1H)-one",O=C1N(CC)c2ccccc2C(O)=C1C=C1C(=O)NN=C1C=1C(=O)N(C)c2ccccc2C=1O,Karthikeyan M.; Glen R.C.; Bender A. General melting point prediction based on a diverse compound dataset and artificial neural networks. J. Chem. Inf. Model.; 2005; 45(3); 581-662
8792,9946.0,,,8793.0,http://dx.doi.org/10.1021/ci020280x,233.0,chlorazanil,Nc2ncnc(Nc1ccc(Cl)cc1)n2,Bergstrom C. A. S.; Norinder U.; Luthman K.; Artursson P. Molecular Descriptors Influencing Melting Point and Their Role in Classification of Solid Drugs. J. Chem. Inf. Comput. Sci.; (Article); 2003; 43(4); 1177-1239
810,530457.0,,,811.0,http://www.alfa.com/en/GP100W.pgm?DSSTK=H27476,62.0,1-(4-ethoxyphenyl)ethynyl-4-n-pentylbenzene,CCCCCc1ccc(cc1)C#Cc2ccc(cc2)OCC,Alfa Aesar
17449,29040.0,,,17450.0,http://www.srcinc.com/what-we-do/product.aspx?id=133,-80.0,"2-bromo-1,1,1,2-tetrafluoroethane",FC(F)(F)C(Br)F,PHYSPROP
1323,68719.0,,,1324.0,http://www.alfa.com/en/GP100W.pgm?DSSTK=A15976,186.0,"2,3-dimethylphenoxyacetic acid",Cc1cccc(c1C)OCC(=O)O,Alfa Aesar
14149,5882.0,,,14150.0,http://www.amazon.com/dp/B003XEQTLE,241.0,p-nitrobenzoic_acid,O=[N+]([O-])c1ccc(cc1)C(=O)O,Aldrich Chemical Company; Aldrich Catalog-Handbook of Fine Chemicals; Milwaukee; WI; 1984.
10896,2033962.0,,,10897.0,http://dx.doi.org/10.1021/ci0500132,154.0,"4,5,6,7-tetramethyl-2,3-dihydro-1H-inden-1-one",O=C1CCc2c1c(C)c(C)c(C)c2C,Karthikeyan M.; Glen R.C.; Bender A. General melting point prediction based on a diverse compound dataset and artificial neural networks. J. Chem. Inf. Model.; 2005; 45(3); 581-2479
3941,67934.0,,,3942.0,http://www.alfa.com/en/GP100W.pgm?DSSTK=H28895,160.0,3-fluoro-4-nitroaniline,c1cc(c(cc1N)F)[N+](=O)[O-],Alfa Aesar
12338,601528.0,,,12339.0,http://dx.doi.org/10.1021/ci0500132,93.0,"2,2-Dimethyl-5-[(5-methyl-2-furyl)methylene]-1,3-dioxane-4,6-dione",O=C1OC(OC(=O)C1=Cc1oc(C)cc1)(C)C,Karthikeyan M.; Glen R.C.; Bender A. General melting point prediction based on a diverse compound dataset and artificial neural networks. J. Chem. Inf. Model.; 2005; 45(3); 581-3921
26858,21107500.0,,,26859.0,http://www.srcinc.com/what-we-do/product.aspx?id=133,65.5,"benzene, 2,4-dibromo-1,3,5-trimethyl-",Brc1c(C)cc(C)c(Br)c1C,PHYSPROP
1156,2929.0,,,1157.0,http://www.alfa.com/en/GP100W.pgm?DSSTK=A12640,174.0,"2,2'-methylenebis(4-chlorophenol)",c1cc(c(cc1Cl)Cc2cc(ccc2O)Cl)O,Alfa Aesar
17727,22148.0,,,17728.0,http://www.srcinc.com/what-we-do/product.aspx?id=133,180.5,2-methylquinoxaline,Cc1cnc2ccccc2n1,PHYSPROP
11668,2030733.0,,,11669.0,http://dx.doi.org/10.1021/ci0500132,174.0,"tetraethyl 2,2'-[(5-aminobenzene-1,3-diyl)dimethylylidene]dipropanedioate",O=C(OCC)C(=Cc1cc(N)cc(c1)C=C(C(=O)OCC)C(=O)OCC)C(=O)OCC,Karthikeyan M.; Glen R.C.; Bender A. General melting point prediction based on a diverse compound dataset and artificial neural networks. J. Chem. Inf. Model.; 2005; 45(3); 581-3251
5316,2053903.0,,,5317.0,http://www.alfa.com/en/GP100W.pgm?DSSTK=L19821,215.0,4-methoxy-3-methylbenzeneboronic acid,B(c1ccc(c(c1)C)OC)(O)O,Alfa Aesar
10935,2033881.0,,,10936.0,http://dx.doi.org/10.1021/ci0500132,119.0,"2-methoxybicyclo[4.2.0]octa-1,3,5-triene-7,8-dione",O=C1c2cccc(OC)c2C1=O,Karthikeyan M.; Glen R.C.; Bender A. General melting point prediction based on a diverse compound dataset and artificial neural networks. J. Chem. Inf. Model.; 2005; 45(3); 581-2518
6934,7856.0,,,6935.0,http://www.alfa.com/en/GP100W.pgm?DSSTK=A11671,-62.0,di-n-butylamine,CCCCNCCCC,Alfa Aesar
8477,10539.0,,,8478.0,http://www.alfa.com/en/GP100W.pgm?DSSTK=A12067,55.0,tetradecanoic acid,CCCCCCCCCCCCCC(=O)O,Alfa Aesar
18277,15683.0,,,18278.0,http://www.srcinc.com/what-we-do/product.aspx?id=133,195.5,fluorenone oxime,ON=C3/c1ccccc1c2ccccc23,PHYSPROP
9955,4521363.0,,,9956.0,http://dx.doi.org/10.1021/ci0500132,192.0,DL-N-Acetaminocinnamic Acid,O=C(NC(=Cc1ccccc1)C(=O)O)C,Karthikeyan M.; Glen R.C.; Bender A. General melting point prediction based on a diverse compound dataset and artificial neural networks. J. Chem. Inf. Model.; 2005; 45(3); 581-1538
12375,554010.0,,,12376.0,http://dx.doi.org/10.1021/ci0500132,186.0,"Ethyl 2-(ethylamino)-5-oxo-5H-chromeno[4,3-b]pyridine-3-carboxylate",O=C1Oc2ccccc2c2[nH0]c(NCC)c(cc12)C(=O)OCC,Karthikeyan M.; Glen R.C.; Bender A. General melting point prediction based on a diverse compound dataset and artificial neural networks. J. Chem. Inf. Model.; 2005; 45(3); 581-3958
525,72128.0,,,526.0,http://www.alfa.com/en/GP100W.pgm?DSSTK=L12492,175.0,"1,4-bis(1-hydroxycyclohexyl)-1,3-butadiyne",C1CCC(CC1)(C#CC#CC2(CCCCC2)O)O,Alfa Aesar
5162,2018391.0,,,5163.0,http://www.alfa.com/en/GP100W.pgm?DSSTK=B25335,90.0,4-fluoronaphthalene-1-carbonitrile,c1ccc2c(c1)c(ccc2F)C#N,Alfa Aesar
15011,13875160.0,,,15012.0,http://msds.chem.ox.ac.uk/,7.5,1-Chloro-4-methylbenzene,Cc1ccc(Cl)cc1,academic website
21898,3264.0,,,21899.0,http://www.srcinc.com/what-we-do/product.aspx?id=133,265.5,fluocinolone acetonide,OCC(=O)C54OC(C)(C)OC5CC3C2CC(F)C1=CC(=O)C=CC1(C)C2(F)C(O)CC34C,PHYSPROP
12104,2029253.0,,,12105.0,http://dx.doi.org/10.1021/ci0500132,137.0,"2-methoxy-4-[3-(2-methoxyphenyl)-5,6-dihydro[1,2,4]triazolo[3,4-b][1,3,4]thiadiazol-6-yl]phenol",S1c2[nH0][nH0]c([nH0]2NC1c1ccc(O)c(OC)c1)c1ccccc1OC,Karthikeyan M.; Glen R.C.; Bender A. General melting point prediction based on a diverse compound dataset and artificial neural networks. J. Chem. Inf. Model.; 2005; 45(3); 581-3687
23000,59605.0,,,23001.0,http://www.srcinc.com/what-we-do/product.aspx?id=133,62.5,"1,3-propanediol, 2-methyl-2-propyl-",CC(CCC)(CO)CO,PHYSPROP
13652,37555.0,,,13653.0,http://www.amazon.com/dp/088318205X,-120.0,5-methyl-2-heptanol,CC(CC)CCC(C)O,Wilhoit R. C. Physical and Thermodynamic Properties of Aliphatic Alcohols. (Supplement to Journal of Physical and Chemical Reference Data; Vol 2; No. 1.); American Chemical Society; Washington; 1973.
3675,715125.0,,,3676.0,http://www.alfa.com/en/GP100W.pgm?DSSTK=L20014,187.0,3-bromo-2-hydroxypyridine,c1cc(c(nc1)O)Br,Alfa Aesar
21584,4820.0,,,21585.0,http://www.srcinc.com/what-we-do/product.aspx?id=133,90.7,"2,4(1h,3h)-pyridinedione, 3,3-diethyl-",CCC1(CC)C(=O)C=CNC1=O,PHYSPROP
5571,644336.0,,,5572.0,http://www.alfa.com/en/GP100W.pgm?DSSTK=L10704,140.0,4-tert-butyl-3-thiosemicarbazide,CC(C)(C)NC(=S)NN,Alfa Aesar
20267,8094.0,,,20268.0,http://www.srcinc.com/what-we-do/product.aspx?id=133,60.75,"benzenemethanol, 4-chloro-.alpha.-phenyl-",OC(c1ccc(Cl)cc1)c2ccccc2,PHYSPROP
26655,13875445.0,,,26656.0,http://www.srcinc.com/what-we-do/product.aspx?id=133,-39.0,2-fluoroanisole,Fc1ccccc1OC,PHYSPROP