,csid,donotuse,donotusebecause,key,link,mpC,name,smiles,source
23918,68310.0,,,23919.0,http://www.srcinc.com/what-we-do/product.aspx?id=133,49.0,n-benzyl ethylcarbamate,O=C(NCc1ccccc1)OCC,PHYSPROP
19774,9962.0,,,19775.0,http://www.srcinc.com/what-we-do/product.aspx?id=133,94.0,n-benzyl-3-chloropropanamide,ClCCC(=O)NCc1ccccc1,PHYSPROP
22580,34724.0,,,22581.0,http://www.srcinc.com/what-we-do/product.aspx?id=133,143.0,perfluidone,O=S(=O)(c1ccccc1)c2cc(C)c(NS(=O)(=O)C(F)(F)F)cc2,PHYSPROP
2176,119974.0,,,2177.0,http://www.alfa.com/en/GP100W.pgm?DSSTK=A11416,43.0,2-bromo-5-nitrobenzotrifluoride,c1cc(c(cc1[N+](=O)[O-])C(F)(F)F)Br,Alfa Aesar
4484,2057247.0,,,4485.0,http://www.alfa.com/en/GP100W.pgm?DSSTK=A14961,97.0,"4,6-dibromo-2,3-dichloroaniline",c1c(c(c(c(c1Br)Cl)Cl)N)Br,Alfa Aesar
21706,4321.0,,,21707.0,http://www.srcinc.com/what-we-do/product.aspx?id=133,162.0,niceritrol,O=C(OCC(COC(=O)c1cccnc1)(COC(=O)c2cccnc2)COC(=O)c3cccnc3)c4cccnc4,PHYSPROP
10296,2036551.0,,,10297.0,http://dx.doi.org/10.1021/ci0500132,98.0,"7-chloro-2,3-diphenyl-1H-indole",ClC1=CC=CC=2C1=NC(c1ccccc1)C=2c1ccccc1,Karthikeyan M.; Glen R.C.; Bender A. General melting point prediction based on a diverse compound dataset and artificial neural networks. J. Chem. Inf. Model.; 2005; 45(3); 581-1879
22521,49.0,,,22522.0,http://www.srcinc.com/what-we-do/product.aspx?id=133,171.0,2-keto-l-gulonic acid,OC(C(=O)C(=O)O)C(O)C(O)CO,PHYSPROP
3508,2017911.0,,,3509.0,http://www.alfa.com/en/GP100W.pgm?DSSTK=L18603,93.0,"3,5-dimethylbenzenesulfonyl chloride",Cc1cc(cc(c1)S(=O)(=O)Cl)C,Alfa Aesar
5276,529817.0,,,5277.0,http://www.alfa.com/en/GP100W.pgm?DSSTK=B25459,98.0,4-iodopyridine,c1cnccc1I,Alfa Aesar
14127,6827.0,,,14128.0,http://www.amazon.com/dp/B003XEQTLE,4.0,dicyclohexyl,C1CC(CCC1)C2CCCCC2,Aldrich Chemical Company; Aldrich Catalog-Handbook of Fine Chemicals; Milwaukee; WI; 1984.
20144,8479.0,,,20145.0,http://www.srcinc.com/what-we-do/product.aspx?id=133,-31.7,aramite,CC(C)(C)c1ccc(OCC(C)OS(=O)OCCCl)cc1,PHYSPROP
20067,8799.0,,,20068.0,http://www.srcinc.com/what-we-do/product.aspx?id=133,168.0,benzo(b)fluoranthene,c1cccc5c1cc4c2c5cccc2c3ccccc34,PHYSPROP
15908,11680.0,,,15909.0,http://msds.chem.ox.ac.uk/,-95.0,Methyl butyrate,CCCC(=O)OC,academic website
7996,5382098.0,,,7997.0,http://www.alfa.com/en/GP100W.pgm?DSSTK=B22164,107.0,N-boc-L-tyrosine methyl ester,CC(C)(C)OC(=O)N[C@@H](Cc1ccc(cc1)O)C(=O)OC,Alfa Aesar
25020,287294.0,,,25021.0,http://www.srcinc.com/what-we-do/product.aspx?id=133,27.0,hex-2-ynoic acid,CCCC#CC(=O)O,PHYSPROP
27736,6478.0,,,27737.0,http://dx.doi.org/10.1016/j.chemosphere.2013.10.095,95.0,Acenaphthene,C1CC2=CC=CC3=C2C1=CC=C3,Abraham M.H. and Acree Jr. W.E. The solubility of liquid and solid compounds in dry octan-1-ol. Chemosphere (2013)
13889,9084959.0,,,13890.0,http://de.wikipedia.org/wiki/Beilsteins_Handbuch_der_Organischen_Chemie,37.0,p-acetylstyrene,O=C(C)c1ccc(C=C)cc1,Beilstein F. K.; Beilsteins Handbuch der Organischen Chemie. Springer; Berlin; 1972.
28566,5198.0,,,28567.0,http://chemspider.com/5198,120.0,temazepam,CN1c2ccc(cc2C(=NC(C1=O)O)c3ccccc3)Cl,EPISuite-ChemSpider
17724,22278.0,,,17725.0,http://www.srcinc.com/what-we-do/product.aspx?id=133,234.0,hepes,OCCN1CCN(CC1)CCS(=O)(=O)O,PHYSPROP
16836,3922.0,,,16837.0,http://www.drugbank.ca/drugs/DB00961,150.5,Mepivacaine,O=C(Nc1c(C)cccc1C)C2CCCCN2C,DrugBank
17017,5815.0,,,17018.0,http://www.drugbank.ca/drugs/DB00158,250.0,Folic Acid,O=C(O)[C@H](CCC(=O)O)NC(=O)c1ccc(cc1)NCc2cnc3NC(N)=NC(=O)c3n2,DrugBank
12843,50586.0,,,12844.0,http://dx.doi.org/10.1021/ci0500132,114.0,Domosedan,[nH0]1c[nH]cc1Cc1cccc(C)c1C,Karthikeyan M.; Glen R.C.; Bender A. General melting point prediction based on a diverse compound dataset and artificial neural networks. J. Chem. Inf. Model.; 2005; 45(3); 581-4426
9621,4645531.0,,,9622.0,http://dx.doi.org/10.1021/ci0500132,163.0,"2-[(Z)-2-(4-methylphenyl)-1-phenoxyethenyl]-1,3-benzothiazole",s1c2ccccc2[nH0]c1C(Oc1ccccc1)=Cc1ccc(C)cc1,Karthikeyan M.; Glen R.C.; Bender A. General melting point prediction based on a diverse compound dataset and artificial neural networks. J. Chem. Inf. Model.; 2005; 45(3); 581-1204
24636,97460.0,,,24637.0,http://www.srcinc.com/what-we-do/product.aspx?id=133,15.0,1-methyl-4-methoxycarbonyl-2-pyrrolidone,COC(=O)C1CC(=O)N(C)C1,PHYSPROP
9298,7855495.0,,,9299.0,http://dx.doi.org/10.1021/ci0500132,146.0,"(2E)-N-hydroxy-1,8,8-trimethylbicyclo[3.2.1]oct-3-en-2-imine",ON=C1C=CC2CCC1(C)C2(C)C,Karthikeyan M.; Glen R.C.; Bender A. General melting point prediction based on a diverse compound dataset and artificial neural networks. J. Chem. Inf. Model.; 2005; 45(3); 581-881
4491,539755.0,,,4492.0,http://www.alfa.com/en/GP100W.pgm?DSSTK=B20891,147.0,"4,6-diisopropyl-1,1,3,3-tetramethyl-5-indanol",CC(C)c1cc2c(c(c1O)C(C)C)C(CC2(C)C)(C)C,Alfa Aesar
12717,87981.0,,,12718.0,http://dx.doi.org/10.1021/ci0500132,88.0,N-(2-benzoylphenyl)acetamide,O=C(Nc1ccccc1C(=O)c1ccccc1)C,Karthikeyan M.; Glen R.C.; Bender A. General melting point prediction based on a diverse compound dataset and artificial neural networks. J. Chem. Inf. Model.; 2005; 45(3); 581-4300
26445,13835579.0,,,26446.0,http://www.srcinc.com/what-we-do/product.aspx?id=133,41.5,hexamethylene diamine,NCCCCCCN,PHYSPROP
7966,2042202.0,,,7967.0,http://www.alfa.com/en/GP100W.pgm?DSSTK=H51983,86.0,N-boc-4-methyL-L-phenylalanine,Cc1ccc(cc1)C[C@@H](C(=O)O)NC(=O)OC(C)(C)C,Alfa Aesar
9397,4901747.0,,,9398.0,http://dx.doi.org/10.1021/ci0500132,151.0,"(2E)-[(4-methoxyphenyl)hydrazono](4-phenyl-1,3-thiazol-2-yl)ethanenitrile",s1cc([nH0]c1C(=NNc1ccc(OC)cc1)C#N)c1ccccc1,Karthikeyan M.; Glen R.C.; Bender A. General melting point prediction based on a diverse compound dataset and artificial neural networks. J. Chem. Inf. Model.; 2005; 45(3); 581-980
308,21111882.0,,,309.0,http://www.alfa.com/en/GP100W.pgm?DSSTK=B23449,-68.0,1-bromo-2-ethylbenzene,CCc1ccccc1Br,Alfa Aesar
733,6779.0,,,734.0,http://www.alfa.com/en/GP100W.pgm?DSSTK=L08143,-30.0,"1,2,3,4-tetrahydroisoquinoline",c1ccc2c(c1)CCNC2,Alfa Aesar
24988,253695.0,,,24989.0,http://www.srcinc.com/what-we-do/product.aspx?id=133,131.5,"3,4-bis(1,3-benzodioxol-5-ylmethyl)tetrahydro-2*",OC5OCC(Cc1ccc2OCOc2c1)C5Cc3cc4OCOc4cc3,PHYSPROP
12502,308647.0,,,12503.0,http://dx.doi.org/10.1021/ci0500132,154.0,"Methanethione, 1,3-benzodioxol-5-yl-4-morpholinyl-",S=C(N1CCOCC1)c1ccc2OCOc2c1,Karthikeyan M.; Glen R.C.; Bender A. General melting point prediction based on a diverse compound dataset and artificial neural networks. J. Chem. Inf. Model.; 2005; 45(3); 581-4085
18998,11976.0,,,18999.0,http://www.srcinc.com/what-we-do/product.aspx?id=133,254.0,"1,2,4,5-tetraiodobenzene",Ic1cc(I)c(I)cc1I,PHYSPROP
25094,453284.0,,,25095.0,http://www.srcinc.com/what-we-do/product.aspx?id=133,4.5,chlorotrinitromethane,O=[N+]([O-])C(Cl)([N+](=O)[O-])[N+]([O-])=O,PHYSPROP
13835,25609.0,,,13836.0,http://www.amazon.com/dp/B002IYRJWI,-88.0,5-methylnonane,CCCCC(C)CCCC,American Petroleum Institute. Research Project 44; Selected Values of Properties of Hydrocarbons and Related Compounds. Texas A & M University; College Station; TX; 1973.
19285,11379.0,,,19286.0,http://www.srcinc.com/what-we-do/product.aspx?id=133,78.0,"2,6-dinitro-p-cresol",O=[N+]([O-])c1cc(C)cc([N+]([O-])=O)c1O,PHYSPROP
28357,1069675.0,,,28358.0,http://malaria.ourexperiment.org/uri/85,260.5,OSM-S-55,c1ccc(cc1)/C=C\1/C(=NC(=Nc2ccccc2)S1)O,OSDD
15568,6102.0,,,15569.0,http://msds.chem.ox.ac.uk/,-46.0,Acetonitrile,CC#N,academic website
27517,13063.0,,,27518.0,http://webbook.nist.gov/cgi/cbook.cgi?ID=C939275&Units=SI&Mask=7,-7.35,2-ethylnaphthalene,CCc1ccc2ccccc2c1,NIST Web Book
11559,2031070.0,,,11560.0,http://dx.doi.org/10.1021/ci0500132,130.0,4-furan-2-yl-1-phenyl-4-piperidin-1-ylbutan-2-one,O=C(Cc1ccccc1)CC(N1CCCCC1)c1occc1,Karthikeyan M.; Glen R.C.; Bender A. General melting point prediction based on a diverse compound dataset and artificial neural networks. J. Chem. Inf. Model.; 2005; 45(3); 581-3142
26361,10645804.0,,,26362.0,http://www.srcinc.com/what-we-do/product.aspx?id=133,-20.0,vitamin k1,CC(C)CCCC(C)CCCC(C)CCCC(/C)=CCC2=C(C)C(=O)c1ccccc1C2=O,PHYSPROP
9075,10484191.0,,,9076.0,http://dx.doi.org/10.1021/ci0500132,265.0,"3-[(4Z)-4-(3-chlorobenzylidene)-5-oxo-4,5-dihydro-1H-pyrazol-3-yl]-4-hydroxy-1-methylquinolin-2(1H)-one",Clc1cccc(c1)C=C1C(=O)NN=C1C=1C(=O)N(C)c2ccccc2C=1O,Karthikeyan M.; Glen R.C.; Bender A. General melting point prediction based on a diverse compound dataset and artificial neural networks. J. Chem. Inf. Model.; 2005; 45(3); 581-656
20516,7624.0,,,20517.0,http://www.srcinc.com/what-we-do/product.aspx?id=133,-61.0,diisopropylamine,CC(C)NC(C)C,PHYSPROP
28497,29153.0,,,28498.0,http://dx.doi.org/10.1080/10629360701430124,151.0,pyrene,c1cc2ccc3cccc4c3c2c(c1)cc4,RAEVSKY OA; PERLOVICH GL and SCHAPER K-J. Physicochemical properties/descriptors governing the solubility and partitioning of chemicals in water-solvent-gas systems. Part 2. Solubility in 1-octanol. SAR and QSAR in Environmental Research Vol. 18 Nos. 5–6 July–September 2007 543–578
5293,76852.0,,,5294.0,http://www.alfa.com/en/GP100W.pgm?DSSTK=A11094,34.0,4-methoxy-1-naphthaldehyde,COc1ccc(c2c1cccc2)C=O,Alfa Aesar
4028,11563.0,,,4029.0,http://www.alfa.com/en/GP100W.pgm?DSSTK=A11515,187.0,3-iodobenzoic acid,c1cc(cc(c1)I)C(=O)O,Alfa Aesar
19407,11080.0,,,19408.0,http://www.srcinc.com/what-we-do/product.aspx?id=133,123.0,"phenol, 3-amino-",Nc1cccc(O)c1,PHYSPROP
5740,61274.0,,,5741.0,http://www.alfa.com/en/GP100W.pgm?DSSTK=A10477,-21.0,5-bromo-2-chlorobenzotrifluoride,c1cc(c(cc1Br)C(F)(F)F)Cl,Alfa Aesar
1361,21106171.0,,,1362.0,http://www.alfa.com/en/GP100W.pgm?DSSTK=A12453,120.0,"2,4,6-tribromoaniline",c1c(cc(c(c1Br)N)Br)Br,Alfa Aesar
2139,3184086.0,,,2140.0,http://www.alfa.com/en/GP100W.pgm?DSSTK=H27859,129.0,2-bromo-4-methoxyphenylacetic acid,COc1ccc(c(c1)Br)CC(=O)O,Alfa Aesar
28205,3693.0,,,28206.0,http://dx.doi.org/10.1016/j.chemosphere.2013.10.095,93.0,Ketoprofen,CC(C1=CC(=CC=C1)C(=O)C2=CC=CC=C2)C(=O)O,Abraham M.H. and Acree Jr. W.E. The solubility of liquid and solid compounds in dry octan-1-ol. Chemosphere (2013)
1167,9535.0,,,1168.0,http://www.alfa.com/en/GP100W.pgm?DSSTK=A12119,34.0,"2,3,4,5,6-pentafluorobenzyl alcohol",C(c1c(c(c(c(c1F)F)F)F)F)O,Alfa Aesar
9768,4644990.0,,,9769.0,http://dx.doi.org/10.1021/ci0500132,210.0,"(3E)-4-[6,7-dimethoxy-4-(5-methylfuran-2-yl)cinnolin-3-yl]but-3-en-2-one",O=C(C)C=Cc1[nH0][nH0]c2cc(OC)c(OC)cc2c1c1oc(C)cc1,Karthikeyan M.; Glen R.C.; Bender A. General melting point prediction based on a diverse compound dataset and artificial neural networks. J. Chem. Inf. Model.; 2005; 45(3); 581-1351
11552,2031096.0,,,11553.0,http://dx.doi.org/10.1021/ci0500132,38.0,"N,N'-[(2-nitrobenzene-1,4-diyl)di(E)methylylidene]bis(2,2-diethoxyethanamine)",O=[N+]([O-])c1cc(ccc1C=NCC(OCC)OCC)C=NCC(OCC)OCC,Karthikeyan M.; Glen R.C.; Bender A. General melting point prediction based on a diverse compound dataset and artificial neural networks. J. Chem. Inf. Model.; 2005; 45(3); 581-3135
5476,59402.0,,,5477.0,http://www.alfa.com/en/GP100W.pgm?DSSTK=A15236,99.0,4-nitrobenzyl bromide,c1cc(ccc1CBr)[N+](=O)[O-],Alfa Aesar
18584,13909.0,,,18585.0,http://www.srcinc.com/what-we-do/product.aspx?id=133,257.0,sulfamido-3-chlorobenzoic acid,O=S(N)(=O)c1cc(ccc1Cl)C(=O)O,PHYSPROP
15347,13860720.0,,,15348.0,http://msds.chem.ox.ac.uk/,72.0,"3,4-Dichloroaniline",Nc1cc(Cl)c(Cl)cc1,academic website
17390,30987.0,,,17391.0,http://www.srcinc.com/what-we-do/product.aspx?id=133,-37.2,"tridecane, 7-methyl-",CCCCCCC(C)CCCCCC,PHYSPROP
5547,610948.0,,,5548.0,http://www.alfa.com/en/GP100W.pgm?DSSTK=H51748,54.0,4-phenyl-2-(3-pyridyl)thiazole,c1ccc(cc1)c2csc(n2)c3cccnc3,Alfa Aesar
18030,17691.0,,,18031.0,http://www.srcinc.com/what-we-do/product.aspx?id=133,115.0,"barbituric acid,5-ipr,5-br-allyl,n-me",O=C1NC(=O)N(C)C(=O)C1(CC(Br)=C)C(C)C,PHYSPROP
3771,122035.0,,,3772.0,http://www.alfa.com/en/GP100W.pgm?DSSTK=L06824,27.0,3-chloro-2-iodotoluene,Cc1cccc(c1I)Cl,Alfa Aesar
7475,643353.0,,,7476.0,http://www.alfa.com/en/GP100W.pgm?DSSTK=A17087,134.0,methyl 2-acetamido-5-bromobenzoate,CC(=O)Nc1ccc(cc1C(=O)OC)Br,Alfa Aesar
13668,29016.0,,,13669.0,http://www.amazon.com/dp/B003XEQTLE,-78.0,isoamyl_acetate,CC(=O)OCCC(C)C,Aldrich Chemical Company; Aldrich Catalog-Handbook of Fine Chemicals; Milwaukee; WI; 1984.
8119,63017.0,,,8120.0,http://www.alfa.com/en/GP100W.pgm?DSSTK=A17671,-61.0,nonanoyl chloride,CCCCCCCCC(=O)Cl,Alfa Aesar
21551,5060.0,,,21552.0,http://www.srcinc.com/what-we-do/product.aspx?id=133,202.0,solassodine,CC6C2C(CC3C4CC=C1CC(O)CCC1(C)C4CCC23C)OC56CCC(C)CN5,PHYSPROP
1542,11309.0,,,1543.0,http://www.alfa.com/en/GP100W.pgm?DSSTK=B25570,132.0,"2,4-dinitro-1-naphthol",c1ccc2c(c1)c(cc(c2O)[N+](=O)[O-])[N+](=O)[O-],Alfa Aesar
1820,13839174.0,,,1821.0,http://www.alfa.com/en/GP100W.pgm?DSSTK=A11947,46.0,"2,6-dimethylphenol",Cc1cccc(c1O)C,Alfa Aesar
11197,2032679.0,x,salt - AL,11198.0,http://dx.doi.org/10.1021/ci0500132,216.0,"2-(diphenylphosphoryl)-4,6-diphenylthiopyranium perchlorate",[Cl+3]([O-])([O-])([O-])[O-].[s+]1c([P+]([O-])(c2ccccc2)c2ccccc2)cc(cc1c1ccccc1)c1ccccc1,Karthikeyan M.; Glen R.C.; Bender A. General melting point prediction based on a diverse compound dataset and artificial neural networks. J. Chem. Inf. Model.; 2005; 45(3); 581-2780
3434,85245.0,,,3435.0,http://www.alfa.com/en/GP100W.pgm?DSSTK=A19991,30.0,"3,5-dichlorophenyl isocyanate",c1c(cc(cc1Cl)Cl)N=C=O,Alfa Aesar
24041,70731.0,,,24042.0,http://www.srcinc.com/what-we-do/product.aspx?id=133,44.0,"ethanol, 2- (1,1-dimethylethyl)amino -",CC(C)(C)NCCO,PHYSPROP
26226,10443532.0,,,26227.0,http://www.srcinc.com/what-we-do/product.aspx?id=133,228.5,"1-(4-trifluoromethyl),2-dibenzoyl-1-tert-butylhy",FC(F)(F)c1ccc(cc1)C(=O)N(NC(=O)c2ccccc2)C(C)(C)C,PHYSPROP
1271,14493634.0,,,1272.0,http://www.alfa.com/en/GP100W.pgm?DSSTK=H26752,84.0,"2,3-difluoro-4-methoxybenzonitrile",COc1ccc(c(c1F)F)C#N,Alfa Aesar
24543,88519.0,,,24544.0,http://www.srcinc.com/what-we-do/product.aspx?id=133,118.0,p-lactophenetidine,CCOc1ccc(cc1)NC(=O)C(C)O,PHYSPROP
9822,4644700.0,,,9823.0,http://dx.doi.org/10.1021/ci0500132,266.0,"(3Z,3'Z)-3,3'-(1Z,3Z)-propane-1,3-diylidenebis(1,7,7-trimethylbicyclo[2.2.1]heptan-2-one)",O=C1C(=CCC=C2C(=O)C3(C)CCC2C3(C)C)C2CCC1(C)C2(C)C,Karthikeyan M.; Glen R.C.; Bender A. General melting point prediction based on a diverse compound dataset and artificial neural networks. J. Chem. Inf. Model.; 2005; 45(3); 581-1405
9815,4644715.0,,,9816.0,http://dx.doi.org/10.1021/ci0500132,105.0,"diethyl 2,2-bis[(Z)-(4,7,7-trimethyl-3-oxobicyclo[2.2.1]hept-2-ylidene)methyl]butanedioate",O=C1C(=CC(C=C2C(=O)C3(C)CCC2C3(C)C)(CC(=O)OCC)C(=O)OCC)C2CCC1(C)C2(C)C,Karthikeyan M.; Glen R.C.; Bender A. General melting point prediction based on a diverse compound dataset and artificial neural networks. J. Chem. Inf. Model.; 2005; 45(3); 581-1398
19469,10918.0,,,19470.0,http://www.srcinc.com/what-we-do/product.aspx?id=133,97.0,"2,7-dimethylnaphthalene",Cc1cc2cc(C)ccc2cc1,PHYSPROP
17329,4444059.0,,,17330.0,http://dx.doi.org/10.1021/ci700307p,67.0,prostaglandin e2,O[C@@H]1CC(=O)[C@H](C/C=CCCCC(=O)O)[C@H]1/C=C/[C@@H](O)CCCCC,Hughes LD; Palmer DS; Nigsch F and Mitchell JBO. 2008 Why are some properties more difficult to predict than others? A study of QSPR models of solubility; melting point and LogP. J. Chem. Inf. Model. 2008. 48 (1). pp 220?477
3529,535622.0,,,3530.0,http://www.alfa.com/en/GP100W.pgm?DSSTK=A12722,147.0,"3',5'-di-tert-butyl-4'-hydroxyacetophenone",CC(=O)c1cc(c(c(c1)C(C)(C)C)O)C(C)(C)C,Alfa Aesar
24810,145595.0,,,24811.0,http://www.srcinc.com/what-we-do/product.aspx?id=133,151.0,ethylcellulose,CC(=O)OCCN(CCCC)c2ccc(/N=N/c1c(cc(cc1C#N)[N+]([O-])=O)C#N)c(C)c2,PHYSPROP
4233,38283.0,,,4234.0,http://www.alfa.com/en/GP100W.pgm?DSSTK=H31998,82.0,4-(2-chlorophenoxy)aniline,c1ccc(c(c1)Oc2ccc(cc2)N)Cl,Alfa Aesar
23188,61337.0,,,23189.0,http://www.srcinc.com/what-we-do/product.aspx?id=133,23.0,"benzenemethanol, 4-fluoro-",OCc1ccc(F)cc1,PHYSPROP
13281,124055.0,,,13282.0,http://www.amazon.com/dp/B002IYRJWI,-108.0,4-methyl-2-hexyne,CC#CC(C)CC,American Petroleum Institute. Research Project 44; Selected Values of Properties of Hydrocarbons and Related Compounds. Texas A & M University; College Station; TX; 1973.
18648,13606.0,,,18649.0,http://www.srcinc.com/what-we-do/product.aspx?id=133,18.0,5-chloropentanoic acid,ClCCCCC(=O)O,PHYSPROP
28017,5678.0,,,28018.0,http://www.aapspharmscitech.org/view.asp?art=pt070126,270.0,"dibenz[a,h]anthracene",c1ccc2c(c1)ccc3c2cc4ccc5ccccc5c4c3,Sepassi K; Yalkowsky SH; AAPS PharmSciTech; 7(1); E1-E8 (2006)
15744,13863300.0,,,15745.0,http://msds.chem.ox.ac.uk/,141.0,Dimethyl terephthalate,COC(=O)c1ccc(cc1)C(=O)OC,academic website
24302,78023.0,,,24303.0,http://www.srcinc.com/what-we-do/product.aspx?id=133,146.0,"ergost-7-en-3-ol, (3.beta.,5.alpha.)-",CC(C)C(C)CCC(C)C2CCC1C3=CCC4CC(O)CCC4(C)C3CCC12C,PHYSPROP
4889,2018140.0,,,4890.0,http://www.alfa.com/en/GP100W.pgm?DSSTK=B20119,66.0,4-chloro-3-(trifluoromethyl)benzonitrile,c1cc(c(cc1C#N)C(F)(F)F)Cl,Alfa Aesar
27724,12524.0,,,27725.0,http://dx.doi.org/10.1080/10629360701430124,78.0,9-methylanthracene,Cc1c2ccccc2cc3c1cccc3,RAEVSKY OA; PERLOVICH GL and SCHAPER K-J. Physicochemical properties/descriptors governing the solubility and partitioning of chemicals in water-solvent-gas systems. Part 2. Solubility in 1-octanol. SAR and QSAR in Environmental Research Vol. 18 Nos. 5–6 July–September 2007 543–578
19802,9867.0,,,19803.0,http://www.srcinc.com/what-we-do/product.aspx?id=133,203.7,chrysarobin,Oc2c3c(cc1cccc(O)c12)cc(C)cc3O,PHYSPROP
16890,5162.0,,,16891.0,http://www.drugbank.ca/drugs/DB00391,178.0,Sulpiride,CCN2CCCC2CNC(=O)c1cc(ccc1OC)S(N)(=O)=O,DrugBank
9250,7960752.0,,,9251.0,http://dx.doi.org/10.1021/ci0500132,179.0,"1-[(5Z)-5-[(2E)-(2-methoxybenzylidene)hydrazinylidene]-4-(2-nitrophenyl)-4,5-dihydro-1,3,4-thiadiazol-2-yl]ethanone",S1C(=NN=Cc2ccccc2OC)N(N=C1C(=O)C)c1ccccc1[N+](=O)[O-],Karthikeyan M.; Glen R.C.; Bender A. General melting point prediction based on a diverse compound dataset and artificial neural networks. J. Chem. Inf. Model.; 2005; 45(3); 581-833
4676,125971.0,,,4677.0,http://www.alfa.com/en/GP100W.pgm?DSSTK=H31787,84.0,4-bromo-2-(trifluoromethyl)phenol,c1cc(c(cc1Br)C(F)(F)F)O,Alfa Aesar
20337,7925.0,,,20338.0,http://www.srcinc.com/what-we-do/product.aspx?id=133,17.5,1-octadecene,CCCCCCCCCCCCCCCCC=C,PHYSPROP
20731,7166.0,,,20732.0,http://www.srcinc.com/what-we-do/product.aspx?id=133,105.5,5-nitro-2-toluidine,Cc1ccc(cc1N)[N+]([O-])=O,PHYSPROP
6766,5608259.0,,,6767.0,http://www.alfa.com/en/GP100W.pgm?DSSTK=L18989,102.0,D-epoxone,CC1(OC[C@]2(O1)C(=O)[C@H]3[C@@H](CO2)OC(O3)(C)C)C,Alfa Aesar
28371,5876.0,,,28372.0,http://chemspider.com/5876,104.5,p-toluenesulfonic acid,Cc1ccc(cc1)S(=O)(=O)O,EPISuite-ChemSpider
19934,9320.0,,,19935.0,http://www.srcinc.com/what-we-do/product.aspx?id=133,153.0,p-hydroxyephedrine,OC(c1ccc(O)cc1)C(C)NC,PHYSPROP
24442,83807.0,,,24443.0,http://www.srcinc.com/what-we-do/product.aspx?id=133,24.5,"6,6a-dihydro-1a-oxir(a)indene",c3ccc1c(CC2OC12)c3,PHYSPROP
27952,18370.0,,,27953.0,http://tinyurl.com/65jrocc,-7.5,cyclobutanecarboxylic acid,C1(CCC1)C(=O)O,Sigma-Aldrich
16290,38123.0,,,16291.0,http://www.drugbank.ca/drugs/DB00214,164.0,Torasemide,O=S(=O)(NC(=O)NC(C)C)c2cnccc2Nc1cc(C)ccc1,DrugBank
7755,6366743.0,,,7756.0,http://www.alfa.com/en/GP100W.pgm?DSSTK=H53509,221.0,N-(2-butynyl)phthalimide,CC#CCN1C(=O)c2ccccc2C1=O,Alfa Aesar
25996,10438042.0,,,25997.0,http://www.srcinc.com/what-we-do/product.aspx?id=133,169.5,"2h-benzotriazole-2-acetamide, ?-methyl-",NC(=O)C(C)n1nc2ccccc2n1,PHYSPROP
7751,17960106.0,,,7752.0,http://www.alfa.com/en/GP100W.pgm?DSSTK=B24837,191.0,"N-(2,4-difluorophenyl)maleamic acid",c1cc(c(cc1F)F)NC(=O)/C=CC(=O)O,Alfa Aesar
5574,63057.0,,,5575.0,http://www.alfa.com/en/GP100W.pgm?DSSTK=A10925,16.0,4-tert-butylaniline,CC(C)(C)c1ccc(cc1)N,Alfa Aesar
18005,17958.0,,,18006.0,http://www.srcinc.com/what-we-do/product.aspx?id=133,32.0,1-bromoheptadecane,BrCCCCCCCCCCCCCCCCC,PHYSPROP