,csid,donotuse,donotusebecause,key,link,mpC,name,smiles,source
10448,2036079.0,,,10449.0,http://dx.doi.org/10.1021/ci0500132,167.0,"4-(4-tert-butylphenyl)-5'-methoxyspiro[cyclohexane-1,2'-inden]-1'(3'H)-one",O=C1c2ccc(OC)cc2CC21CCC(CC2)c1ccc(cc1)C(C)(C)C,Karthikeyan M.; Glen R.C.; Bender A. General melting point prediction based on a diverse compound dataset and artificial neural networks. J. Chem. Inf. Model.; 2005; 45(3); 581-2031
16154,21105998.0,,,16155.0,http://msds.chem.ox.ac.uk/,49.0,Thymol,CC(C)c1ccc(C)cc1O,academic website
7428,10471.0,,,7429.0,http://www.alfa.com/en/GP100W.pgm?DSSTK=A13135,92.0,maleimide,C1=CC(=O)NC1=O,Alfa Aesar
6457,61364.0,,,6458.0,http://www.alfa.com/en/GP100W.pgm?DSSTK=L01695,182.0,benzopinacolone,c1ccc(cc1)C(=O)C(c2ccccc2)(c3ccccc3)c4ccccc4,Alfa Aesar
2611,2043988.0,,,2612.0,http://www.alfa.com/en/GP100W.pgm?DSSTK=H28144,107.0,2-fluoro-5-(trifluoromethyl)benzeneboronic acid,B(c1cc(ccc1F)C(F)(F)F)(O)O,Alfa Aesar
13646,11773.0,,,13647.0,http://www.amazon.com/dp/B003XEQTLE,161.0,"1,3-dicyanobenzene",N#Cc1cccc(C#N)c1,Aldrich Chemical Company; Aldrich Catalog-Handbook of Fine Chemicals; Milwaukee; WI; 1984.
20522,7612.0,,,20523.0,http://www.srcinc.com/what-we-do/product.aspx?id=133,-95.0,1-methoxy-2-propanol,CC(O)COC,PHYSPROP
12094,2029264.0,,,12095.0,http://dx.doi.org/10.1021/ci0500132,217.0,"2-[3-(phenoxymethyl)-5,6-dihydro[1,2,4]triazolo[3,4-b][1,3,4]thiadiazol-6-yl]phenol",S1c2[nH0][nH0]c([nH0]2NC1c1ccccc1O)COc1ccccc1,Karthikeyan M.; Glen R.C.; Bender A. General melting point prediction based on a diverse compound dataset and artificial neural networks. J. Chem. Inf. Model.; 2005; 45(3); 581-3677
18673,13476.0,,,18674.0,http://www.srcinc.com/what-we-do/product.aspx?id=133,143.5,"benzoic acid, 4-ethenyl-",OC(=O)c1ccc(C=C)cc1,PHYSPROP
23305,62158.0,,,23306.0,http://www.srcinc.com/what-we-do/product.aspx?id=133,262.5,sulfaperine,O=S(=O)(Nc1ncc(C)cn1)c2ccc(N)cc2,PHYSPROP
3975,79201.0,,,3976.0,http://www.alfa.com/en/GP100W.pgm?DSSTK=L05098,43.0,3-hexadecanone,CCCCCCCCCCCCCC(=O)CC,Alfa Aesar
24309,78319.0,,,24310.0,http://www.srcinc.com/what-we-do/product.aspx?id=133,147.0,gamma-sitosterol,CC(C)C(CC)CCC(C)C1CCC2C3CC=C4CC(O)CCC4(C)C3CCC12C,PHYSPROP
16562,4446829.0,,,16563.0,http://www.drugbank.ca/drugs/DB00136,113.0,Calcitriol,C=C1C(C[C@@H](O)C[C@@H]1O)=CC=C2/CCC[C@]3(C)[C@H](CC[C@@H]23)[C@H](C)CCCC(C)(C)O,DrugBank
4743,63320.0,,,4744.0,http://www.alfa.com/en/GP100W.pgm?DSSTK=B25468,112.0,4-bromo-2-nitroaniline,c1cc(c(cc1Br)[N+](=O)[O-])N,Alfa Aesar
24803,136011.0,,,24804.0,http://www.srcinc.com/what-we-do/product.aspx?id=133,225.0,"1,1'-biphenyl, octabromo-",Brc2c(c1c(Br)c(Br)cc(Br)c1Br)c(Br)c(Br)cc2Br,PHYSPROP
27989,2301265.0,,,27990.0,http://www.druglead.com/cds/d-galactose.html,167.0,D-galactose,O=C[C@H](O)[C@@H](O)[C@@H](O)[C@H](O)CO,DrugLead
2327,512372.0,,,2328.0,http://www.alfa.com/en/GP100W.pgm?DSSTK=B21762,117.0,2'-chloro-4'-fluoroacetanilide,CC(=O)Nc1ccc(cc1Cl)F,Alfa Aesar
7760,206268.0,,,7761.0,http://www.alfa.com/en/GP100W.pgm?DSSTK=L11306,60.0,N-(2-hydroxyethyl)succinimide,C1CC(=O)N(C1=O)CCO,Alfa Aesar
14597,71414.0,,,14598.0,http://www.questia.com/library/book/physical_properties_of_chemical_compounds_by_robert_rickert_dreisbach.jsp,-34.0,"1,4-dibromopentane",BrC(C)CCCBr,Dreisbach R. R. Physical Properties of Chemical Compounds; Vol. III; American Chemical Society; Washington; 1961.
13179,6127.0,,,13180.0,http://www.amazon.com/dp/B003XEQTLE,-112.0,acetyl_chloride,CC(Cl)=O,Aldrich Chemical Company; Aldrich Catalog-Handbook of Fine Chemicals; Milwaukee; WI; 1984.
27110,21186062.0,,,27111.0,http://scripts.iucr.org/cgi-bin/paper?fg1381,252.85,"(2S)-2-[(5S,8R,9S,10S,13S,14S,17R)-10,13-Dimethyl-3-oxohexadecahydro-1H-cyclopenta[a]phenanthren-17-yl]propanoic acid (non-preferred name)",O=C(O)[C@H]([C@H]1CC[C@@H]2[C@]1(C)CC[C@H]4[C@H]2CC[C@H]3CC(=O)CC[C@@]34C)C,IUCr
8643,10101.0,,,8644.0,http://www.alfa.com/en/GP100W.pgm?DSSTK=A10595,-46.0,trimethyl phosphate,COP(=O)(OC)OC,Alfa Aesar
9786,4644787.0,,,9787.0,http://dx.doi.org/10.1021/ci0500132,220.0,(1Z)-3-methyl-6-(1-methylethyl)cyclohex-2-en-1-one semicarbazone,O=C(N)NN=C1C=C(C)CCC1C(C)C,Karthikeyan M.; Glen R.C.; Bender A. General melting point prediction based on a diverse compound dataset and artificial neural networks. J. Chem. Inf. Model.; 2005; 45(3); 581-1369
2479,56246.0,,,2480.0,http://www.alfa.com/en/GP100W.pgm?DSSTK=A12247,100.0,2-chloro-n-(hydroxymethyl)acetamide,C(C(=O)NCO)Cl,Alfa Aesar
24001,69973.0,,,24002.0,http://www.srcinc.com/what-we-do/product.aspx?id=133,59.3,"benzene, 1-(bromomethyl)-3-nitro-",O=[N+]([O-])c1cc(CBr)ccc1,PHYSPROP
19710,10171.0,,,19711.0,http://www.srcinc.com/what-we-do/product.aspx?id=133,134.0,ambucetamide,COc1ccc(cc1)C(C(N)=O)N(CCCC)CCCC,PHYSPROP
26424,13835179.0,,,26425.0,http://www.srcinc.com/what-we-do/product.aspx?id=133,146.0,"1,4-benzenediamine",Nc1ccc(N)cc1,PHYSPROP
20379,7867.0,,,20380.0,http://www.srcinc.com/what-we-do/product.aspx?id=133,-50.2,"acetic acid, heptyl ester",CCCCCCCOC(C)=O,PHYSPROP
18305,15520.0,,,18306.0,http://www.srcinc.com/what-we-do/product.aspx?id=133,216.0,pimozide,Fc1ccc(cc1)C(CCCN2CCC(CC2)N3c4ccccc4NC3=O)c5ccc(F)cc5,PHYSPROP
1831,13835296.0,,,1832.0,http://www.alfa.com/en/GP100W.pgm?DSSTK=A16863,71.0,"2,6-di-tert-butyl-4-methylphenol",Cc1cc(c(c(c1)C(C)(C)C)O)C(C)(C)C,Alfa Aesar
14360,63906.0,,,14361.0,http://www.amazon.com/dp/B003XEQTLE,57.0,p-bromobenzaldehyde,O=Cc1ccc(Br)cc1,Aldrich Chemical Company; Aldrich Catalog-Handbook of Fine Chemicals; Milwaukee; WI; 1984.
2169,3925513.0,,,2170.0,http://www.alfa.com/en/GP100W.pgm?DSSTK=L20016,124.0,2-bromo-5-iodopyridine,c1cc(ncc1I)Br,Alfa Aesar
8303,8353.0,,,8304.0,http://www.alfa.com/en/GP100W.pgm?DSSTK=A17788,317.0,p-quaterphenyl,c1ccc(cc1)c2ccc(cc2)c3ccc(cc3)c4ccccc4,Alfa Aesar
4945,10411.0,,,4946.0,http://www.alfa.com/en/GP100W.pgm?DSSTK=A11214,179.0,4'-chloroacetanilide,CC(=O)Nc1ccc(cc1)Cl,Alfa Aesar
28605,6196.0,,,28606.0,http://dx.doi.org/10.1080/10629360701430124,293.0,triamcinolone acetonide,O=C\1\C=C5/[C@@](/C=C/1)(C)[C@]2(F)[C@H]([C@H]3[C@](C[C@@H]2O)([C@@]4(OC(O[C@@H]4C3)(C)C)C(=O)CO)C)CC5,RAEVSKY OA; PERLOVICH GL and SCHAPER K-J. Physicochemical properties/descriptors governing the solubility and partitioning of chemicals in water-solvent-gas systems. Part 2. Solubility in 1-octanol. SAR and QSAR in Environmental Research Vol. 18 Nos. 5–6 July–September 2007 543–578
23854,67604.0,,,23855.0,http://www.srcinc.com/what-we-do/product.aspx?id=133,0.6,1-chloro-3-(trichloromethyl)benzene,ClC(Cl)(Cl)c1cc(Cl)ccc1,PHYSPROP
13218,6104.0,,,13219.0,http://www.questia.com/library/book/physical_properties_of_chemical_compounds_by_robert_rickert_dreisbach.jsp,-95.0,dichloromethane,ClCCl,Dreisbach R. R. Physical Properties of Chemical Compounds; Vol. III; American Chemical Society; Washington; 1961.
575,67462.0,,,576.0,http://www.alfa.com/en/GP100W.pgm?DSSTK=A11338,11.0,"1,3-diethoxybenzene",CCOc1cccc(c1)OCC,Alfa Aesar
12406,531832.0,,,12407.0,http://dx.doi.org/10.1021/ci0500132,156.0,"2,2'-Dimethoxybiphenyl",O(C)c1ccccc1c1ccccc1OC,Karthikeyan M.; Glen R.C.; Bender A. General melting point prediction based on a diverse compound dataset and artificial neural networks. J. Chem. Inf. Model.; 2005; 45(3); 581-3989
13904,10404.0,,,13905.0,http://www.amazon.com/dp/B002IYRJWI,-75.0,pentylbenzene,CCCCCc1ccccc1,American Petroleum Institute. Research Project 44; Selected Values of Properties of Hydrocarbons and Related Compounds. Texas A & M University; College Station; TX; 1973.
18750,13048.0,,,18751.0,http://www.srcinc.com/what-we-do/product.aspx?id=133,148.5,"benzoylhydrazine, o-hydroxy",O=C(NN)c1ccccc1O,PHYSPROP
24794,126358.0,,,24795.0,http://www.srcinc.com/what-we-do/product.aspx?id=133,-23.5,"cyclohexane, 1,1'-propylidenebis-",CCC(C1CCCCC1)C2CCCCC2,PHYSPROP
22411,623.0,,,22412.0,http://www.srcinc.com/what-we-do/product.aspx?id=133,157.0,desthiobiotin,O=C(O)CCCCCC1NC(=O)NC1C,PHYSPROP
18088,16879.0,,,18089.0,http://www.srcinc.com/what-we-do/product.aspx?id=133,-30.0,2-(dimethylamino)ethyl 2-methyl-2-propenoate,CN(C)CCOC(=O)C(=C)C,PHYSPROP
5473,9438.0,,,5474.0,http://www.alfa.com/en/GP100W.pgm?DSSTK=L15766,40.0,4-nitrobenzotrifluoride,c1cc(ccc1C(F)(F)F)[N+](=O)[O-],Alfa Aesar
16643,2562.0,,,16644.0,http://www.drugbank.ca/drugs/DB00482,157.5,Celecoxib,NS(=O)(=O)c1ccc(cc1)n3nc(cc3c2ccc(C)cc2)C(F)(F)F,DrugBank
9218,10482451.0,,,9219.0,http://dx.doi.org/10.1021/ci0500132,200.0,3-[(1E)-N-(3-aminophenyl)ethanimidoyl]-4-hydroxy-1-phenylquinolin-2(1H)-one,O=C1N(c2ccccc2)c2ccccc2C(O)=C1C(=Nc1cccc(N)c1)C,Karthikeyan M.; Glen R.C.; Bender A. General melting point prediction based on a diverse compound dataset and artificial neural networks. J. Chem. Inf. Model.; 2005; 45(3); 581-801
3644,10897.0,,,3645.0,http://www.alfa.com/en/GP100W.pgm?DSSTK=A16592,94.0,3-aminoquinoline,c1ccc2c(c1)cc(cn2)N,Alfa Aesar
6116,5378370.0,,,6117.0,http://www.alfa.com/en/GP100W.pgm?DSSTK=L05972,70.0,6-chloropiperonyl alcohol,c1c(c(cc2c1OCO2)Cl)CO,Alfa Aesar
3965,60937.0,,,3966.0,http://www.alfa.com/en/GP100W.pgm?DSSTK=A15635,46.0,3-fluorophenylacetic acid,c1cc(cc(c1)F)CC(=O)O,Alfa Aesar
25696,4512642.0,,,25697.0,http://www.srcinc.com/what-we-do/product.aspx?id=133,-118.7,"4-octene, (z)-",CCCC=CCCC,PHYSPROP
28297,906.0,,,28298.0,http://dx.doi.org/10.1080/10629360701430124,82.0,naphthalene,c1ccc2ccccc2c1,RAEVSKY OA; PERLOVICH GL and SCHAPER K-J. Physicochemical properties/descriptors governing the solubility and partitioning of chemicals in water-solvent-gas systems. Part 2. Solubility in 1-octanol. SAR and QSAR in Environmental Research Vol. 18 Nos. 5–6 July–September 2007 543–578
7711,6322.0,,,7712.0,http://www.alfa.com/en/GP100W.pgm?DSSTK=A11910,-7.0,methyl vinyl ketone,CC(=O)C=C,Alfa Aesar
6510,85491.0,,,6511.0,http://www.alfa.com/en/GP100W.pgm?DSSTK=A12163,144.0,beta-D-galactose pentaacetate,CC(=O)OC[C@@H]1[C@@H]([C@@H]([C@H]([C@@H](O1)OC(=O)C)OC(=O)C)OC(=O)C)OC(=O)C,Alfa Aesar
28624,21106058.0,,,28625.0,http://usefulchem.wikispaces.com/exp148,180.0,Ugi product 148B,CC(C)(C)NC(=O)C(N(CCCCCCC)C(=O)\C=C\C)c2cc3ccccc3c1ccccc12,UsefulChem
1117,61428.0,,,1118.0,http://www.alfa.com/en/GP100W.pgm?DSSTK=A12335,32.0,"2,2'-bithiophene",c1cc(sc1)c2cccs2,Alfa Aesar
5152,13861.0,,,5153.0,http://www.alfa.com/en/GP100W.pgm?DSSTK=A13028,36.0,4-fluorobenzonitrile,c1cc(ccc1C#N)F,Alfa Aesar
2175,212451.0,,,2176.0,http://www.alfa.com/en/GP100W.pgm?DSSTK=B25704,180.0,2-bromo-5-nitrobenzoic acid,c1cc(c(cc1[N+](=O)[O-])C(=O)O)Br,Alfa Aesar
18050,17439.0,,,18051.0,http://www.srcinc.com/what-we-do/product.aspx?id=133,123.0,"exo-2,3-epoxynorbornane",C1CC2CC1C3OC23,PHYSPROP
25044,363463.0,,,25045.0,http://www.srcinc.com/what-we-do/product.aspx?id=133,99.5,b-erythroidine,O=C4CC3=C(CCN2CC=C1C=CC(OC)CC123)CO4,PHYSPROP
6275,86406.0,,,6276.0,http://www.alfa.com/en/GP100W.pgm?DSSTK=A17900,174.0,"9,10-dihydrobenzo[a]pyrene-7(8h)-one",c1cc2ccc3cc4c(c5c3c2c(c1)cc5)CCCC4=O,Alfa Aesar
9824,4644676.0,,,9825.0,http://dx.doi.org/10.1021/ci0500132,175.0,"N-acetyl-N-{3,5-dinitro-2,4-bis[(E)-2-phenylethenyl]phenyl}acetamide",O=[N+]([O-])c1cc(N(C(=O)C)C(=O)C)c(C=Cc2ccccc2)c([N+](=O)[O-])c1C=Cc1ccccc1,Karthikeyan M.; Glen R.C.; Bender A. General melting point prediction based on a diverse compound dataset and artificial neural networks. J. Chem. Inf. Model.; 2005; 45(3); 581-1407
20169,8356.0,,,20170.0,http://www.srcinc.com/what-we-do/product.aspx?id=133,-82.7,sec-butylbenzene,CCC(C)c1ccccc1,PHYSPROP
9758,4645031.0,,,9759.0,http://dx.doi.org/10.1021/ci0500132,293.0,"N~5~-(4-methoxyphenyl)-6-phenyl-1,2,4-triazine-3,5-diamine",O(C)c1ccc(Nc2[nH0]c(N)[nH0][nH0]c2c2ccccc2)cc1,Karthikeyan M.; Glen R.C.; Bender A. General melting point prediction based on a diverse compound dataset and artificial neural networks. J. Chem. Inf. Model.; 2005; 45(3); 581-1341
3927,2015200.0,,,3928.0,http://www.alfa.com/en/GP100W.pgm?DSSTK=B21921,211.0,3-fluoro-4-methoxybenzoic acid,COc1ccc(cc1F)C(=O)O,Alfa Aesar
16028,8562.0,,,16029.0,http://msds.chem.ox.ac.uk/,-40.0,N-Propylpropan-1-amine,CCCNCCC,academic website
14426,25968.0,,,14427.0,http://www.amazon.com/dp/B003XEQTLE,48.0,p-bromophenylacetonitrile,Brc1ccc(CC#N)cc1,Aldrich Chemical Company; Aldrich Catalog-Handbook of Fine Chemicals; Milwaukee; WI; 1984.
8566,553682.0,,,8567.0,http://www.alfa.com/en/GP100W.pgm?DSSTK=A12689,9.0,trans-2-pentenoic acid,CC/C=C/C(=O)O,Alfa Aesar
5306,14550.0,,,5307.0,http://www.alfa.com/en/GP100W.pgm?DSSTK=A13409,79.0,4-methoxy-2-nitrophenol,COc1ccc(c(c1)[N+](=O)[O-])O,Alfa Aesar
27705,13846663.0,,,27706.0,http://www.sigmaaldrich.com/united-states.html,98.5,4-tert-butylphenol,CC(C)(C)c1ccc(cc1)O,Sigma-Aldrich
15565,173.0,,,15566.0,http://msds.chem.ox.ac.uk/,81.0,Acetamide,CC(N)=O,academic website
1159,13881956.0,,,1160.0,http://www.alfa.com/en/GP100W.pgm?DSSTK=A17002,-16.0,"2,2'-thiodiethanol",C(CSCCO)O,Alfa Aesar
21614,4737.0,,,21615.0,http://www.srcinc.com/what-we-do/product.aspx?id=133,37.5,prilocaine,O=C(Nc1ccccc1C)C(C)NCCC,PHYSPROP
17555,26423.0,,,17556.0,http://www.srcinc.com/what-we-do/product.aspx?id=133,179.0,khellol glucoside,COc2c4ccoc4cc3OC(COC1OC(CO)C(O)C(O)C1O)=CC(=O)c23,PHYSPROP
5021,69032.0,,,5022.0,http://www.alfa.com/en/GP100W.pgm?DSSTK=H31836,170.0,4-cyanobenzenesulfonamide,c1cc(ccc1C#N)S(=O)(=O)N,Alfa Aesar
22321,967.0,,,22322.0,http://www.srcinc.com/what-we-do/product.aspx?id=133,174.0,pentachlorophenol,Clc1c(O)c(Cl)c(Cl)c(Cl)c1Cl,PHYSPROP
14332,642441.0,,,14333.0,http://www.amazon.com/dp/B003XEQTLE,159.0,m-chlorocinnamic_acid__(trans),Clc1cc(/C=C/C(=O)O)ccc1,Aldrich Chemical Company; Aldrich Catalog-Handbook of Fine Chemicals; Milwaukee; WI; 1984.
1642,120739.0,,,1643.0,http://www.alfa.com/en/GP100W.pgm?DSSTK=A11288,114.0,"2,5-dimethoxybenzenesulfonyl chloride",COc1ccc(c(c1)S(=O)(=O)Cl)OC,Alfa Aesar
2201,643344.0,,,2202.0,http://www.alfa.com/en/GP100W.pgm?DSSTK=B23023,102.0,2-bromobenzaldoxime,c1ccc(c(c1)C=NO)Br,Alfa Aesar
28074,6084.0,,,28075.0,http://pubs.acs.org/doi/abs/10.1021/ja01281a013,-183.28,ethane,CC,Witt RK; Kemp JD Journal of the American Chemical Society; 59(2); 273-266 (1937)
4335,543430.0,,,4336.0,http://www.alfa.com/en/GP100W.pgm?DSSTK=L11305,102.0,4-(phenylsulfonyl)thiophene-2-sulfonyl chloride,c1ccc(cc1)S(=O)(=O)c2cc(sc2)S(=O)(=O)Cl,Alfa Aesar
26387,10807625.0,,,26388.0,http://www.srcinc.com/what-we-do/product.aspx?id=133,29.0,"hexanedioic acid, monoethyl ester",O=C(CCCCC(=O)O)OCC,PHYSPROP
19818,9833.0,,,19819.0,http://www.srcinc.com/what-we-do/product.aspx?id=133,77.0,flavanone,O=C2CC(Oc1ccccc12)c3ccccc3,PHYSPROP
212,7903.0,,,213.0,http://www.alfa.com/en/GP100W.pgm?DSSTK=A12741,-7.0,1-dodecanethiol,CCCCCCCCCCCCS,Alfa Aesar
2183,534050.0,,,2184.0,http://www.alfa.com/en/GP100W.pgm?DSSTK=A15399,56.0,2-bromo-6-chloro-4-fluoroaniline,c1c(cc(c(c1Cl)N)Br)F,Alfa Aesar
16091,6881.0,,,16092.0,http://msds.chem.ox.ac.uk/,18.0,Propiophenone,O=C(CC)c1ccccc1,academic website
26841,21106560.0,,,26842.0,http://www.srcinc.com/what-we-do/product.aspx?id=133,-90.5,4-ethylpyridine,CCc1ccncc1,PHYSPROP
23647,64147.0,,,23648.0,http://www.srcinc.com/what-we-do/product.aspx?id=133,41.0,(4-bromobutoxy)benzene,BrCCCCOc1ccccc1,PHYSPROP
11323,2032041.0,,,11324.0,http://dx.doi.org/10.1021/ci0500132,188.0,"N,2,4-triphenylpyrrolidine-1-carbothioamide",S=C(Nc1ccccc1)N1CC(CC1c1ccccc1)c1ccccc1,Karthikeyan M.; Glen R.C.; Bender A. General melting point prediction based on a diverse compound dataset and artificial neural networks. J. Chem. Inf. Model.; 2005; 45(3); 581-2906
1718,76872.0,,,1719.0,http://www.alfa.com/en/GP100W.pgm?DSSTK=B21255,64.0,"2,6-dichloro-3-nitropyridine",c1cc(nc(c1[N+](=O)[O-])Cl)Cl,Alfa Aesar
3172,2016137.0,,,3173.0,http://www.alfa.com/en/GP100W.pgm?DSSTK=L19775,80.0,3-(trifluoromethoxy)benzeneboronic acid,B(c1cccc(c1)OC(F)(F)F)(O)O,Alfa Aesar
18744,13063.0,,,18745.0,http://www.srcinc.com/what-we-do/product.aspx?id=133,-7.4,2-ethylnaphthalene,CCc1ccc2ccccc2c1,PHYSPROP
6726,70325.0,,,6727.0,http://www.alfa.com/en/GP100W.pgm?DSSTK=A17710,-76.0,cyclopentanecarbonitrile,C1CCC(C1)C#N,Alfa Aesar
6847,76171.0,,,6848.0,http://www.alfa.com/en/GP100W.pgm?DSSTK=B21498,-26.0,diethyl phenyl orthoformate,CCOC(OCC)Oc1ccccc1,Alfa Aesar
9711,4645345.0,,,9712.0,http://dx.doi.org/10.1021/ci0500132,229.0,(2E)-2-(1H-Benzimidazol-2-yl)-3-(pyridin-3-yl)acrylonitrile,N#CC(=Cc1c[nH0]ccc1)C1N=C2C=CC=CC2=N1,Karthikeyan M.; Glen R.C.; Bender A. General melting point prediction based on a diverse compound dataset and artificial neural networks. J. Chem. Inf. Model.; 2005; 45(3); 581-1294
20567,7519.0,,,20568.0,http://www.srcinc.com/what-we-do/product.aspx?id=133,66.4,p-bromoaniline,Nc1ccc(Br)cc1,PHYSPROP
12729,83963.0,,,12730.0,http://dx.doi.org/10.1021/ci0500132,239.0,"Bibenzyl, alpha,alpha'-dibromo-",BrC(c1ccccc1)C(Br)c1ccccc1,Karthikeyan M.; Glen R.C.; Bender A. General melting point prediction based on a diverse compound dataset and artificial neural networks. J. Chem. Inf. Model.; 2005; 45(3); 581-4312
8248,4600.0,,,8249.0,http://www.alfa.com/en/GP100W.pgm?DSSTK=38705,260.0,phenolphthalein,c1ccc2c(c1)C(=O)OC2(c3ccc(cc3)O)c4ccc(cc4)O,Alfa Aesar
19676,10283.0,,,19677.0,http://www.srcinc.com/what-we-do/product.aspx?id=133,90.0,chloramphenicol palmitate,O=[N+]([O-])c1ccc(cc1)C(O)C(COC(=O)CCCCCCCCCCCCCCC)NC(=O)C(Cl)Cl,PHYSPROP
24536,88161.0,,,24537.0,http://www.srcinc.com/what-we-do/product.aspx?id=133,72.0,acetic acid acetoxy-(3-nitro-phenyl)methyl ester,O=[N+]([O-])c1cc(ccc1)C(OC(C)=O)OC(C)=O,PHYSPROP
14466,13875161.0,,,14467.0,http://www.amazon.com/dp/B003XEQTLE,71.0,"5-bromo-1,2,4-trimethylbenzene",Cc1cc(C)c(Br)cc1C,Aldrich Chemical Company; Aldrich Catalog-Handbook of Fine Chemicals; Milwaukee; WI; 1984.
1573,19138.0,,,1574.0,http://www.alfa.com/en/GP100W.pgm?DSSTK=H28670,96.0,"2,5-diaminopyridine",c1cc(ncc1N)N,Alfa Aesar
19456,10961.0,,,19457.0,http://www.srcinc.com/what-we-do/product.aspx?id=133,55.5,bis(2-methylphenyl)diazene,Cc2ccccc2/N=N/c1ccccc1C,PHYSPROP
20622,7357.0,,,20623.0,http://www.srcinc.com/what-we-do/product.aspx?id=133,75.0,chlorbenside,Clc2ccc(SCc1ccc(Cl)cc1)cc2,PHYSPROP
21495,5254.0,,,21496.0,http://www.srcinc.com/what-we-do/product.aspx?id=133,51.5,thiotepa,S=P(N1CC1)(N2CC2)N3CC3,PHYSPROP
27891,2424.0,,,27892.0,http://chemspider.com/2424,238.0,caffeine,Cn1cnc2c1c(=O)n(c(=O)n2C)C,EPISuite-ChemSpider
24116,71900.0,,,24117.0,http://www.srcinc.com/what-we-do/product.aspx?id=133,211.5,"1,2,4,5-tetramethyl-3,6-dinitro-benzene",Cc1c(C)c(c(C)c(C)c1[N+](=O)[O-])[N+]([O-])=O,PHYSPROP
20864,6901.0,,,20865.0,http://www.srcinc.com/what-we-do/product.aspx?id=133,71.0,phenyl benzoate,O=C(Oc1ccccc1)c2ccccc2,PHYSPROP
4083,71650.0,,,4084.0,http://www.alfa.com/en/GP100W.pgm?DSSTK=B22348,49.0,3-methyl-4-nitroanisole,Cc1cc(ccc1[N+](=O)[O-])OC,Alfa Aesar
12206,1363277.0,,,12207.0,http://dx.doi.org/10.1021/ci0500132,111.0,4-(Propylamino)-2H-chromen-2-one,O=C1Oc2ccccc2C(NCCC)=C1,Karthikeyan M.; Glen R.C.; Bender A. General melting point prediction based on a diverse compound dataset and artificial neural networks. J. Chem. Inf. Model.; 2005; 45(3); 581-3789
15991,7730.0,,,15992.0,http://msds.chem.ox.ac.uk/,-50.0,N-Ethylethanamine,CCNCC,academic website
17296,46739.0,,,17297.0,http://dx.doi.org/10.1021/ci700307p,53.5,fenoxycarb,O=C(OCC)NCCOc1ccc(cc1)Oc2ccccc2,Hughes LD; Palmer DS; Nigsch F and Mitchell JBO. 2008 Why are some properties more difficult to predict than others? A study of QSPR models of solubility; melting point and LogP. J. Chem. Inf. Model. 2008. 48 (1). pp 220?444
19454,10966.0,,,19455.0,http://www.srcinc.com/what-we-do/product.aspx?id=133,42.3,"phenol, 3-(1,1-dimethylethyl)-",CC(C)(C)c1cc(O)ccc1,PHYSPROP
481,2054496.0,,,482.0,http://www.alfa.com/en/GP100W.pgm?DSSTK=B25401,121.0,"1,4-difluoro-2,5-dimethoxybenzene",COc1cc(c(cc1F)OC)F,Alfa Aesar