,csid,donotuse,donotusebecause,key,link,mpC,name,smiles,source
6856,7730.0,,,6857.0,http://www.alfa.com/en/GP100W.pgm?DSSTK=A11716,-50.0,diethylamine,CCNCC,Alfa Aesar
1687,81818.0,,,1688.0,http://www.alfa.com/en/GP100W.pgm?DSSTK=B20486,138.0,"2,6-bis(trifluoromethyl)benzoic acid",c1cc(c(c(c1)C(F)(F)F)C(=O)O)C(F)(F)F,Alfa Aesar
5917,61178.0,,,5918.0,http://www.alfa.com/en/GP100W.pgm?DSSTK=A15346,45.0,5-fluoroindole,c1cc2c(cc[nH]2)cc1F,Alfa Aesar
4459,73215.0,,,4460.0,http://www.alfa.com/en/GP100W.pgm?DSSTK=A17908,181.0,"4,5-dichloro-2-nitroaniline",c1c(c(cc(c1Cl)Cl)[N+](=O)[O-])N,Alfa Aesar
5682,83174.0,,,5683.0,http://www.alfa.com/en/GP100W.pgm?DSSTK=L08726,130.0,5alpha-cholestan-3-one,C[C@H](CCCC(C)C)[C@H]1CC[C@@H]2[C@@]1(CC[C@H]3[C@H]2CC[C@@H]4[C@@]3(CCC(=O)C4)C)C,Alfa Aesar
20566,7521.0,,,20567.0,http://www.srcinc.com/what-we-do/product.aspx?id=133,13.25,p-xylene,Cc1ccc(C)cc1,PHYSPROP
16716,394765.0,,,16717.0,http://www.drugbank.ca/drugs/DB02788,15.0,"S,3-Hydroxybutan-2-One",CC(=O)[C@H](C)O,DrugBank
16307,5742.0,,,16308.0,http://www.drugbank.ca/drugs/DB00171,176.0,Adenosine triphosphate,O=P(O)(O)OP(=O)(O)OP(=O)(O)OC[C@H]3O[C@@H](n2cnc1c(N)ncnc12)[C@H](O)[C@@H]3O,DrugBank
9189,10482714.0,x,salt - AL,9190.0,http://dx.doi.org/10.1021/ci0500132,182.0,1-methyl-2-(1-oxido-3-oxo-3H-indol-2-yl)pyridinium iodide,[I-].O=C1c2ccccc2[N+]([O-])=C1c1[nH0+](C)cccc1,Karthikeyan M.; Glen R.C.; Bender A. General melting point prediction based on a diverse compound dataset and artificial neural networks. J. Chem. Inf. Model.; 2005; 45(3); 581-772
17992,18094.0,,,17993.0,http://www.srcinc.com/what-we-do/product.aspx?id=133,199.0,acetyl sulfamethoxypyrazine,COc2nccnc2N(C(C)=O)S(=O)(=O)c1ccc(N)cc1,PHYSPROP
17019,6068.0,,,17020.0,http://www.drugbank.ca/drugs/DB01325,251.0,Quinethazone,NS(=O)(=O)c1cc2C(=O)NC(Nc2cc1Cl)CC,DrugBank
14335,6769.0,,,14336.0,http://www.amazon.com/dp/B003XEQTLE,12.0,aminodiphenylmethane,NC(c1ccccc1)c2ccccc2,Aldrich Chemical Company; Aldrich Catalog-Handbook of Fine Chemicals; Milwaukee; WI; 1984.
3738,125950.0,,,3739.0,http://www.alfa.com/en/GP100W.pgm?DSSTK=H25940,35.0,3-bromopyridine n-oxide,c1cc(c[n+](c1)[O-])Br,Alfa Aesar
28513,4963.0,,,28514.0,http://dx.doi.org/10.1080/10629360701430124,142.0,salicylamide,O=C(c1ccccc1O)N,RAEVSKY OA; PERLOVICH GL and SCHAPER K-J. Physicochemical properties/descriptors governing the solubility and partitioning of chemicals in water-solvent-gas systems. Part 2. Solubility in 1-octanol. SAR and QSAR in Environmental Research Vol. 18 Nos. 5–6 July–September 2007 543–578
28190,780.0,,,28191.0,http://dx.doi.org/10.1016/j.chemosphere.2013.10.095,168.5,Indole-3-acetic acid,C1=CC=C2C(=C1)C(=CN2)CC(=O)O,Abraham M.H. and Acree Jr. W.E. The solubility of liquid and solid compounds in dry octan-1-ol. Chemosphere (2013)
22289,1078.0,,,22290.0,http://www.srcinc.com/what-we-do/product.aspx?id=133,188.0,butanedioc acid,O=C(O)CCC(=O)O,PHYSPROP
22655,37250.0,,,22656.0,http://www.srcinc.com/what-we-do/product.aspx?id=133,39.0,"(2,4,5-trichlorophenoxy)acetic acid sec-bu ester",Clc1cc(OCC(=O)OC(C)CC)c(Cl)cc1Cl,PHYSPROP
5777,2081215.0,,,5778.0,http://www.alfa.com/en/GP100W.pgm?DSSTK=L13579,184.0,5-bromo-3-pyridineacetic acid,c1c(cncc1Br)CC(=O)O,Alfa Aesar
18059,17333.0,,,18060.0,http://www.srcinc.com/what-we-do/product.aspx?id=133,125.5,2-chloro-9h-fluoren-9-one,Clc2ccc3c1ccccc1C(=O)c3c2,PHYSPROP
4064,54991.0,,,4065.0,http://www.alfa.com/en/GP100W.pgm?DSSTK=L07055,-63.0,3-methoxypropionitrile,COCCC#N,Alfa Aesar
17919,19092.0,,,17920.0,http://www.srcinc.com/what-we-do/product.aspx?id=133,50.0,tybamate,O=C(NCCCC)OCC(C)(COC(=O)N)CCC,PHYSPROP
9197,10482701.0,,,9198.0,http://dx.doi.org/10.1021/ci0500132,182.0,3-nitro-4-[(Z)-2-{2-[(2-phenylhydrazinylidene)methyl]phenyl}ethenyl]benzonitrile,O=[N+]([O-])c1cc(C#N)ccc1C=Cc1ccccc1C=NNc1ccccc1,Karthikeyan M.; Glen R.C.; Bender A. General melting point prediction based on a diverse compound dataset and artificial neural networks. J. Chem. Inf. Model.; 2005; 45(3); 581-780
23626,63972.0,,,23627.0,http://www.srcinc.com/what-we-do/product.aspx?id=133,284.0,mops,O=S(=O)(O)CCCN1CCOCC1,PHYSPROP
1351,9856.0,,,1352.0,http://www.alfa.com/en/GP100W.pgm?DSSTK=A19324,144.0,"2,4,5-trimethoxybenzoic acid",COc1cc(c(cc1OC)OC)C(=O)O,Alfa Aesar
8258,7389.0,,,8259.0,http://www.alfa.com/en/GP100W.pgm?DSSTK=A12808,-33.0,phenyl isocyanate,c1ccc(cc1)N=C=O,Alfa Aesar
2136,526306.0,,,2137.0,http://www.alfa.com/en/GP100W.pgm?DSSTK=A11263,44.0,2-bromo-4-fluorophenol,c1cc(c(cc1F)Br)O,Alfa Aesar
11938,2029718.0,,,11939.0,http://dx.doi.org/10.1021/ci0500132,164.0,"benzyl 4-furan-2-yl-6-methyl-2-thioxo-1,2,3,4-tetrahydropyrimidine-5-carboxylate",S=C1NC(C)=C(C(=O)OCc2ccccc2)C(N1)c1occc1,Karthikeyan M.; Glen R.C.; Bender A. General melting point prediction based on a diverse compound dataset and artificial neural networks. J. Chem. Inf. Model.; 2005; 45(3); 581-3521
19057,11861.0,,,19058.0,http://www.srcinc.com/what-we-do/product.aspx?id=133,-35.5,2-nonanol,CCCCCCCC(C)O,PHYSPROP
20499,7657.0,,,20500.0,http://www.srcinc.com/what-we-do/product.aspx?id=133,-99.3,ethyl isovalerate,CC(C)CC(=O)OCC,PHYSPROP
27985,63025.0,,,27986.0,http://www.hbcpnetbase.com/,-35.39,cyclopropylamine,C1(CC1)N,CRC Handbook of Chemistry and Physics
9327,7842731.0,,,9328.0,http://dx.doi.org/10.1021/ci0500132,74.0,ethyl (2E)-2-[2-(2-nitrophenyl)hydrazinylidene]-3-oxobutanoate,O=[N+]([O-])c1ccccc1NN=C(C(=O)OCC)C(=O)C,Karthikeyan M.; Glen R.C.; Bender A. General melting point prediction based on a diverse compound dataset and artificial neural networks. J. Chem. Inf. Model.; 2005; 45(3); 581-910
28109,8800.0,,,28110.0,http://dx.doi.org/10.1080/10629360701430124,108.5,fluoranthene,c1ccc-2c(c1)-c3cccc4c3c2ccc4,RAEVSKY OA; PERLOVICH GL and SCHAPER K-J. Physicochemical properties/descriptors governing the solubility and partitioning of chemicals in water-solvent-gas systems. Part 2. Solubility in 1-octanol. SAR and QSAR in Environmental Research Vol. 18 Nos. 5–6 July–September 2007 543–578
5835,555103.0,,,5836.0,http://www.alfa.com/en/GP100W.pgm?DSSTK=B25709,41.0,5-chloro-2-iodoaniline,c1cc(c(cc1Cl)N)I,Alfa Aesar
8618,8659.0,,,8619.0,http://www.alfa.com/en/GP100W.pgm?DSSTK=A18728,-85.0,triethyl borate,B(OCC)(OCC)OCC,Alfa Aesar
8994,5286.0,,,8995.0,http://dx.doi.org/10.1021/ci020280x,223.0,tirofiban,CCCCS(=O)(=O)NC(Cc2ccc(OCCCCC1CCNCC1)cc2)C(O)=O,Bergstrom C. A. S.; Norinder U.; Luthman K.; Artursson P. Molecular Descriptors Influencing Melting Point and Their Role in Classification of Solid Drugs. J. Chem. Inf. Comput. Sci.; (Article); 2003; 43(4); 1177-1441
18419,14918.0,,,18420.0,http://www.srcinc.com/what-we-do/product.aspx?id=133,59.5,"benzenemethanol, 2,4-dichloro-",OCc1ccc(Cl)cc1Cl,PHYSPROP
27495,6656.0,,,27496.0,http://www.fluoryx.com/88-17-5.htm,-30.0,2-(trifluoromethyl)aniline,FC(F)(F)c1ccccc1N,Fluoryx
16048,13839082.0,,,16049.0,http://msds.chem.ox.ac.uk/,34.0,p-Cresol,Cc1ccc(O)cc1,academic website
24662,104189.0,,,24663.0,http://www.srcinc.com/what-we-do/product.aspx?id=133,136.0,"1(2h)-pyrimidinecarboxamide, n-butyl-5-fluoro-3,",O=C1NC(=O)C(F)=CN1C(=O)NCCCC,PHYSPROP
27856,7223.0,,,27857.0,http://tinyurl.com/66yrvbk,10.0,benzylamine,c1ccc(cc1)CN,Sigma-Aldrich
18888,12430.0,,,18889.0,http://www.srcinc.com/what-we-do/product.aspx?id=133,-131.5,2-ethyl-1-butene,C=C(CC)CC,PHYSPROP
1744,69609.0,,,1745.0,http://www.alfa.com/en/GP100W.pgm?DSSTK=L10256,96.0,"2,6-dichlorobenzothiazole",c1cc2c(cc1Cl)sc(n2)Cl,Alfa Aesar
2957,2056110.0,,,2958.0,http://www.alfa.com/en/GP100W.pgm?DSSTK=L19238,43.0,2-nitro-4-(trifluoromethyl)benzenesulfonyl chloride,c1cc(c(cc1C(F)(F)F)[N+](=O)[O-])S(=O)(=O)Cl,Alfa Aesar