,csid,donotuse,donotusebecause,key,link,mpC,name,smiles,source
12374,554238.0,,,12375.0,http://dx.doi.org/10.1021/ci0500132,86.0,7-methyl-2-benzofuran-1(3H)-one,O=C1OCc2cccc(C)c21,Karthikeyan M.; Glen R.C.; Bender A. General melting point prediction based on a diverse compound dataset and artificial neural networks. J. Chem. Inf. Model.; 2005; 45(3); 581-3957
13507,7478.0,,,13508.0,http://www.amazon.com/dp/B003XEQTLE,-43.0,diethyl_carbonate,O=C(OCC)OCC,Aldrich Chemical Company; Aldrich Catalog-Handbook of Fine Chemicals; Milwaukee; WI; 1984.
25246,553123.0,,,25247.0,http://www.srcinc.com/what-we-do/product.aspx?id=133,13.37,oleic acid,O=C(O)CCCCCCCC=CCCCCCCCC,PHYSPROP
8815,4514715.0,,,8816.0,http://dx.doi.org/10.1021/ci020280x,129.0,febantel,COCC(=O)Nc2cc(Sc1ccccc1)ccc2N=C(NC(=O)OC)NC(=O)OC,Bergstrom C. A. S.; Norinder U.; Luthman K.; Artursson P. Molecular Descriptors Influencing Melting Point and Their Role in Classification of Solid Drugs. J. Chem. Inf. Comput. Sci.; (Article); 2003; 43(4); 1177-1262
6562,13764.0,,,6563.0,http://www.alfa.com/en/GP100W.pgm?DSSTK=L04656,306.0,bis(pentabromophenyl) ether,c1(c(c(c(c(c1Br)Br)Br)Br)Br)Oc2c(c(c(c(c2Br)Br)Br)Br)Br,Alfa Aesar
25949,10181341.0,,,25950.0,http://www.srcinc.com/what-we-do/product.aspx?id=133,76.5,phenylacetic acid,OC(=O)Cc1ccccc1,PHYSPROP
15927,13835401.0,,,15928.0,http://msds.chem.ox.ac.uk/,-35.0,"N-(2-Aminoethyl)ethane-1,2-diamine",NCCNCCN,academic website
3362,56310.0,,,3363.0,http://www.alfa.com/en/GP100W.pgm?DSSTK=L06655,-10.0,"3,4-hexanedione",CCC(=O)C(=O)CC,Alfa Aesar
27689,7190.0,,,27690.0,http://chemspider.com/7190,179.6,4-methylbenzoic acid,Cc1ccc(cc1)C(=O)O,EPISuite-ChemSpider
11746,2030503.0,x,mixture,11747.0,http://dx.doi.org/10.1021/ci0500132,105.0,"benzene-1,3-diyldiethane-1,1-diyl bis(phenylcarbamate) - benzene (1:1)",O=C(OC(C)c1cccc(c1)C(OC(=O)Nc1ccccc1)C)Nc1ccccc1.c1ccccc1,Karthikeyan M.; Glen R.C.; Bender A. General melting point prediction based on a diverse compound dataset and artificial neural networks. J. Chem. Inf. Model.; 2005; 45(3); 581-3329
12625,203026.0,,,12626.0,http://dx.doi.org/10.1021/ci0500132,71.0,"Methyl (6-methoxy-1-oxo-1,2,3,4-tetrahydronaphthalen-2-yl)(oxo)acetate",O=C1c2ccc(OC)cc2CCC1C(=O)C(=O)OC,Karthikeyan M.; Glen R.C.; Bender A. General melting point prediction based on a diverse compound dataset and artificial neural networks. J. Chem. Inf. Model.; 2005; 45(3); 581-4208
21698,4355.0,,,21699.0,http://www.srcinc.com/what-we-do/product.aspx?id=133,184.0,"3,5-dinitrobenzamide",O=[N+]([O-])c1cc(cc(c1)[N+]([O-])=O)C(N)=O,PHYSPROP
11556,2031087.0,,,11557.0,http://dx.doi.org/10.1021/ci0500132,61.0,"N,N'-[benzene-1,3-diyldi(E)methylylidene]bis(2,2-diethoxyethanamine)",O(CC)C(OCC)CN=Cc1cccc(c1)C=NCC(OCC)OCC,Karthikeyan M.; Glen R.C.; Bender A. General melting point prediction based on a diverse compound dataset and artificial neural networks. J. Chem. Inf. Model.; 2005; 45(3); 581-3139
4509,2914972.0,,,4510.0,http://www.alfa.com/en/GP100W.pgm?DSSTK=L07626,140.0,4'-acetamido-3'-bromoacetophenone,CC(=O)c1ccc(c(c1)Br)NC(=O)C,Alfa Aesar
1181,2052200.0,,,1182.0,http://www.alfa.com/en/GP100W.pgm?DSSTK=H27843,98.0,"2,3,4,5-tetrahydro-1h-1,4-benzodiazepine",c1ccc2c(c1)CNCCN2,Alfa Aesar
24729,120224.0,,,24730.0,http://www.srcinc.com/what-we-do/product.aspx?id=133,200.0,"butanedioic acid, tetramethyl-",CC(C)(C(=O)O)C(C)(C)C(=O)O,PHYSPROP
22373,801.0,,,22374.0,http://www.srcinc.com/what-we-do/product.aspx?id=133,307.0,norvaline,CCCC(N)C(=O)O,PHYSPROP
16630,4444351.0,,,16631.0,http://www.drugbank.ca/drugs/DB00153,117.0,Ergocalciferol,C=C3CC[C@H](O)CC3=CC=C1/CCC[C@]2(C)[C@H](CC[C@@H]12)[C@H](C)/C=C/[C@H](C)C(C)C,DrugBank
28262,7176.0,,,28263.0,http://chemspider.com/7176,131.0,methylparaben,COC(=O)c1ccc(cc1)O,EPISuite-ChemSpider
24941,220333.0,,,24942.0,http://www.srcinc.com/what-we-do/product.aspx?id=133,-75.0,"propanenitrile, 2-(acetyloxy)-",CC(=O)OC(C)C#N,PHYSPROP
26443,13835550.0,,,26444.0,http://www.srcinc.com/what-we-do/product.aspx?id=133,11.1,"1,2-diaminoethane",NCCN,PHYSPROP
17371,31512.0,,,17372.0,http://www.srcinc.com/what-we-do/product.aspx?id=133,3.3,thiobencarb,Clc1ccc(CSC(=O)N(CC)CC)cc1,PHYSPROP
5577,2016072.0,,,5578.0,http://www.alfa.com/en/GP100W.pgm?DSSTK=B24408,194.0,4-tert-butylbenzeneboronic acid,B(c1ccc(cc1)C(C)(C)C)(O)O,Alfa Aesar
26045,10439282.0,,,26046.0,http://www.srcinc.com/what-we-do/product.aspx?id=133,127.0,"benzenesulfonamide, 3-chloro-4-[(3-hydroxypropyl",Clc1cc(ccc1SCCCO)S(N)(=O)=O,PHYSPROP
14813,66365.0,,,14814.0,http://msds.chem.ox.ac.uk/,11.5,(3-Chlorophenyl)acetonitrile,Clc1cc(CC#N)ccc1,academic website
11484,2031472.0,,,11485.0,http://dx.doi.org/10.1021/ci0500132,96.0,"(4,7,7-trimethyl-3-oxobicyclo[2.2.1]hept-2-yl)methyl benzoate",O=C1C(COC(=O)c2ccccc2)C2CCC1(C)C2(C)C,Karthikeyan M.; Glen R.C.; Bender A. General melting point prediction based on a diverse compound dataset and artificial neural networks. J. Chem. Inf. Model.; 2005; 45(3); 581-3067
13089,880.0,x,clearly out of range JCB,13090.0,http://dx.doi.org/10.1021/ci0500132,154.0,acetanilide,O=C(Nc1ccccc1)C,Karthikeyan M.; Glen R.C.; Bender A. General melting point prediction based on a diverse compound dataset and artificial neural networks. J. Chem. Inf. Model.; 2005; 45(3); 581-4672
12659,170591.0,,,12660.0,http://dx.doi.org/10.1021/ci0500132,264.0,"6H-pyrimido[1,6-b]pyridazin-6-one, 5-(2,6-dichlorophenyl)-2-(phenylthio)-",Clc1cccc(Cl)c1C=1C(=O)N=CN2N=C(Sc3ccccc3)C=CC2=1,Karthikeyan M.; Glen R.C.; Bender A. General melting point prediction based on a diverse compound dataset and artificial neural networks. J. Chem. Inf. Model.; 2005; 45(3); 581-4242
26743,21106013.0,,,26744.0,http://www.srcinc.com/what-we-do/product.aspx?id=133,46.0,3-chloro-nitrobenzene,O=[N+]([O-])c1cc(Cl)ccc1,PHYSPROP
17208,5233.0,,,17209.0,http://dx.doi.org/10.1021/ci700307p,270.0,thalidomide,O=C1NC(=O)CCC1N3C(=O)c2ccccc2C3=O,Hughes LD; Palmer DS; Nigsch F and Mitchell JBO. 2008 Why are some properties more difficult to predict than others? A study of QSPR models of solubility; melting point and LogP. J. Chem. Inf. Model. 2008. 48 (1). pp 220?356
19582,10550.0,,,19583.0,http://www.srcinc.com/what-we-do/product.aspx?id=133,41.0,tepa,O=P(N1CC1)(N2CC2)N3CC3,PHYSPROP
20302,8015.0,,,20303.0,http://www.srcinc.com/what-we-do/product.aspx?id=133,492.5,violanthrone,O=C3c2ccc9c1c(ccc(c12)c4ccccc34)c6ccc7c5ccccc5C(=O)c8ccc9c6c78,PHYSPROP
395,64175.0,,,396.0,http://www.alfa.com/en/GP100W.pgm?DSSTK=B21648,102.0,10-methylphenothiazine,CN1c2ccccc2Sc3c1cccc3,Alfa Aesar
5843,2016027.0,,,5844.0,http://www.alfa.com/en/GP100W.pgm?DSSTK=A14362,102.0,5-chloro-2-methoxybenzenesulfonyl chloride,COc1ccc(cc1S(=O)(=O)Cl)Cl,Alfa Aesar
25531,3606249.0,,,25532.0,http://www.srcinc.com/what-we-do/product.aspx?id=133,25.5,"acetic acid, trichloro-, 1,1-dimethylethyl ester",ClC(Cl)(Cl)C(=O)OC(C)(C)C,PHYSPROP
11736,2030567.0,,,11737.0,http://dx.doi.org/10.1021/ci0500132,58.0,"4,4'-(2-nitrobenzene-1,4-diyl)dibutan-2-one",O=[N+]([O-])c1cc(ccc1CCC(=O)C)CCC(=O)C,Karthikeyan M.; Glen R.C.; Bender A. General melting point prediction based on a diverse compound dataset and artificial neural networks. J. Chem. Inf. Model.; 2005; 45(3); 581-3319
18167,16273.0,,,18168.0,http://www.srcinc.com/what-we-do/product.aspx?id=133,187.0,c.i. disperse blue 3,O=C2c1ccccc1C(=O)c3c2c(ccc3NCCO)NC,PHYSPROP
14893,6326.0,,,14894.0,http://msds.chem.ox.ac.uk/,-35.0,"1,1,2-Trichloroethane",ClCC(Cl)Cl,academic website
6626,63437.0,,,6627.0,http://www.alfa.com/en/GP100W.pgm?DSSTK=B25023,-94.0,chlorocyclopentane,C1CCC(C1)Cl,Alfa Aesar
16236,70383.0,,,16237.0,http://www.drugbank.ca/drugs/DB00412,122.5,Rosiglitazone,CN(CCOc2ccc(CC1SC(=O)NC1=O)cc2)c3ccccn3,DrugBank
9133,10483965.0,,,9134.0,http://dx.doi.org/10.1021/ci0500132,131.0,"[5-imino-4-(pyridin-4-yl)-4,5-dihydro-1,3,4-thiadiazol-2-yl](thiophen-2-yl)methanone",s1cccc1C(=O)C=1SC(=N)N(N=1)c1cc[nH0]cc1,Karthikeyan M.; Glen R.C.; Bender A. General melting point prediction based on a diverse compound dataset and artificial neural networks. J. Chem. Inf. Model.; 2005; 45(3); 581-714
24672,106059.0,,,24673.0,http://www.srcinc.com/what-we-do/product.aspx?id=133,87.5,"2,6-dichloro-3,5-dimethylphenol",Clc1c(C)cc(C)c(Cl)c1O,PHYSPROP
21579,4856.0,,,21580.0,http://www.srcinc.com/what-we-do/product.aspx?id=133,34.0,"(1r,2s)-(-)-ephedrine",OC(C(C)NC)c1ccccc1,PHYSPROP
19476,10902.0,,,19477.0,http://www.srcinc.com/what-we-do/product.aspx?id=133,27.0,chlorazine,Clc1nc(nc(n1)N(CC)CC)N(CC)CC,PHYSPROP
15957,924.0,,,15958.0,http://msds.chem.ox.ac.uk/,2.0,"N,N-Dimethylaniline",CN(C)c1ccccc1,academic website
20441,7752.0,,,20442.0,http://www.srcinc.com/what-we-do/product.aspx?id=133,-50.0,octyl decyl adipate,O=C(OCCCCCCCC)CCCCC(=O)OCCCCCCCCCC,PHYSPROP
7069,4520292.0,,,7070.0,http://www.alfa.com/en/GP100W.pgm?DSSTK=B24291,18.0,ethyl 3-(dimethylamino)acrylate,CCOC(=O)/C=C/N(C)C,Alfa Aesar
14969,10020.0,,,14970.0,http://msds.chem.ox.ac.uk/,111.0,"1,4-Dithiane",C1CSCCS1,academic website
1115,73505.0,,,1116.0,http://www.alfa.com/en/GP100W.pgm?DSSTK=B22515,104.0,"2,2-bis(hydroxymethyl)-2,2',2''-nitrilotriethanol",C(CO)N(CCO)C(CO)(CO)CO,Alfa Aesar
28519,331.0,,,28520.0,http://sis.nlm.nih.gov/chemical.html,158.0,salicylic acid,c1ccc(c(c1)C(=O)O)O,ChemIDplus
24839,169454.0,,,24840.0,http://www.srcinc.com/what-we-do/product.aspx?id=133,115.0,cafenstrole,O=S(=O)(c1ncn(n1)C(=O)N(CC)CC)c2c(C)cc(C)cc2C,PHYSPROP
13710,13038.0,,,13711.0,http://www.amazon.com/dp/B002IYRJWI,-84.0,"1,3-dimethyl-5-ethylbenzene",Cc1cc(C)cc(CC)c1,American Petroleum Institute. Research Project 44; Selected Values of Properties of Hydrocarbons and Related Compounds. Texas A & M University; College Station; TX; 1973.
17269,15521.0,,,17270.0,http://dx.doi.org/10.1021/ci700307p,170.9,benperidol,Fc1ccc(cc1)C(=O)CCCN2CCC(CC2)N3c4ccccc4NC3=O,Hughes LD; Palmer DS; Nigsch F and Mitchell JBO. 2008 Why are some properties more difficult to predict than others? A study of QSPR models of solubility; melting point and LogP. J. Chem. Inf. Model. 2008. 48 (1). pp 220?417
9302,7855490.0,,,9303.0,http://dx.doi.org/10.1021/ci0500132,109.0,"(3E)-3-(hydroxyimino)-1,8,8-trimethylbicyclo[3.2.1]octane-2,4-dione",O=C1C(=NO)C(=O)C2(C)CCC1C2(C)C,Karthikeyan M.; Glen R.C.; Bender A. General melting point prediction based on a diverse compound dataset and artificial neural networks. J. Chem. Inf. Model.; 2005; 45(3); 581-885
12518,291801.0,,,12519.0,http://dx.doi.org/10.1021/ci0500132,141.0,ethyl 3-amino-4-cyano-5-[(2-ethoxy-2-oxoethyl)sulfanyl]thiophene-2-carboxylate,s1c(SCC(=O)OCC)c(C#N)c(N)c1C(=O)OCC,Karthikeyan M.; Glen R.C.; Bender A. General melting point prediction based on a diverse compound dataset and artificial neural networks. J. Chem. Inf. Model.; 2005; 45(3); 581-4101
27919,2618.0,,,27920.0,https://scifinder.cas.org/,89.0,chloroquine,Clc1cc2nccc(c2cc1)NC(C)CCCN(CC)CC,Doklady
23078,60296.0,,,23079.0,http://www.srcinc.com/what-we-do/product.aspx?id=133,40.0,"octadecanoic acid, 2- 2- 2-(2-hydroxyethoxy)etho",O=C(OCCOCCOCCOCCO)CCCCCCCCCCCCCCCCC,PHYSPROP
11187,2032699.0,x,salt - AL,11188.0,http://dx.doi.org/10.1021/ci0500132,296.0,"4-carboxy-2,6-diphenylpyranium perchlorate",[Cl+3]([O-])([O-])([O-])[O-].O=C(O)c1cc([o+]c(c1)c1ccccc1)c1ccccc1,Karthikeyan M.; Glen R.C.; Bender A. General melting point prediction based on a diverse compound dataset and artificial neural networks. J. Chem. Inf. Model.; 2005; 45(3); 581-2770
24055,71090.0,,,24056.0,http://www.srcinc.com/what-we-do/product.aspx?id=133,97.0,"pyridine, 2-butyl-",CCCCc1ccccn1,PHYSPROP
17359,31848.0,,,17360.0,http://www.srcinc.com/what-we-do/product.aspx?id=133,82.5,"cyclohexanol, 4-chloro-, trans-",OC1CCC(Cl)CC1,PHYSPROP
2507,7027.0,,,2508.0,http://www.alfa.com/en/GP100W.pgm?DSSTK=A10390,-72.0,2-chlorothiophene,c1cc(sc1)Cl,Alfa Aesar
114,506965.0,,,115.0,http://www.alfa.com/en/GP100W.pgm?DSSTK=B24786,85.0,"1-methylimidazole-4,5-dicarbonitrile",Cn1cnc(c1C#N)C#N,Alfa Aesar
23831,67373.0,,,23832.0,http://www.srcinc.com/what-we-do/product.aspx?id=133,58.0,pentyl sulfoxide,CCCCCS(=O)CCCCC,PHYSPROP
2101,2356.0,,,2102.0,http://www.alfa.com/en/GP100W.pgm?DSSTK=A11639,127.0,"2-bromo-2-nitropropane-1,3-diol",C(C(CO)([N+](=O)[O-])Br)O,Alfa Aesar
19571,10619.0,,,19572.0,http://www.srcinc.com/what-we-do/product.aspx?id=133,94.0,2-nitroacetanilide,O=C(C)Nc1ccccc1[N+]([O-])=O,PHYSPROP
5031,7225.0,,,5032.0,http://www.alfa.com/en/GP100W.pgm?DSSTK=A10286,78.0,4-cyanopyridine,c1cnccc1C#N,Alfa Aesar
1172,62757.0,,,1173.0,http://www.alfa.com/en/GP100W.pgm?DSSTK=B22430,109.0,"2,3,4,5,6-pentafluorophenylacetic acid",C(c1c(c(c(c(c1F)F)F)F)F)C(=O)O,Alfa Aesar
9273,7855589.0,,,9274.0,http://dx.doi.org/10.1021/ci0500132,213.0,"(2E)-2-(1,3-benzothiazol-2-yl)-2-[2-(2-methoxyphenyl)hydrazinylidene]ethanamide",s1c2ccccc2[nH0]c1C(=NNc1ccccc1OC)C(=O)N,Karthikeyan M.; Glen R.C.; Bender A. General melting point prediction based on a diverse compound dataset and artificial neural networks. J. Chem. Inf. Model.; 2005; 45(3); 581-856
14016,4882019.0,,,14017.0,http://www.amazon.com/dp/B003XEQTLE,214.0,isoborneol,C[C@]12CC[C@H](C[C@H]1O)C2(C)C,Aldrich Chemical Company; Aldrich Catalog-Handbook of Fine Chemicals; Milwaukee; WI; 1984.
7156,21106112.0,,,7157.0,http://www.alfa.com/en/GP100W.pgm?DSSTK=A14378,15.0,ethyl anthranilate,CCOC(=O)c1ccccc1N,Alfa Aesar
7856,924.0,,,7857.0,http://www.alfa.com/en/GP100W.pgm?DSSTK=A11916,2.0,"N,N-dimethylaniline",CN(C)c1ccccc1,Alfa Aesar
4273,21997.0,,,4274.0,http://www.alfa.com/en/GP100W.pgm?DSSTK=L11577,24.0,4-(aminomethyl)piperidine,C1CNCCC1CN,Alfa Aesar
20512,7628.0,,,20513.0,http://www.srcinc.com/what-we-do/product.aspx?id=133,-92.9,1-propen-2-ol acetate,C=C(C)OC(C)=O,PHYSPROP
2830,16499500.0,,,2831.0,http://www.alfa.com/en/GP100W.pgm?DSSTK=H26329,36.0,2-methoxy-5-(trifluoromethyl)benzyl bromide,COc1ccc(cc1CBr)C(F)(F)F,Alfa Aesar
5027,149419.0,,,5028.0,http://www.alfa.com/en/GP100W.pgm?DSSTK=B22471,46.0,4-cyanophenyl 4-n-hexylbenzoate,CCCCCCc1ccc(cc1)C(=O)Oc2ccc(cc2)C#N,Alfa Aesar
21279,6144.0,,,21280.0,http://www.srcinc.com/what-we-do/product.aspx?id=133,-172.0,bromotrifluoromethane,BrC(F)(F)F,PHYSPROP
1137,14959.0,,,1138.0,http://www.alfa.com/en/GP100W.pgm?DSSTK=A14800,109.0,"2,2'-dihydroxybiphenyl",c1ccc(c(c1)c2ccccc2O)O,Alfa Aesar
19927,9333.0,,,19928.0,http://www.srcinc.com/what-we-do/product.aspx?id=133,-24.8,"2,4,6-tris-(trifluoromethyl)-1,3,5-triazine",FC(F)(F)c1nc(nc(n1)C(F)(F)F)C(F)(F)F,PHYSPROP
23827,67334.0,,,23828.0,http://www.srcinc.com/what-we-do/product.aspx?id=133,170.0,"benzenamine, 4-[(4-nitrophenyl)sulfonyl]-",Nc1ccc(cc1)S(=O)(=O)c2ccc(cc2)[N+]([O-])=O,PHYSPROP
27341,4526784.0,,,27342.0,http://pubs.acs.org/doi/full/10.1021/ol0602708,89.5,"(2E)-1,3-Bis-(4-methoxyphenyl)-2-propen-1-one",COC1=CC=C(C=C1)C(\C=C\C2=CC=C(C=C2)OC)=O,Organic Letters
20714,7183.0,,,20715.0,http://www.srcinc.com/what-we-do/product.aspx?id=133,-68.0,p-i-propyltoluene,Cc1ccc(cc1)C(C)C,PHYSPROP
12218,1266784.0,,,12219.0,http://dx.doi.org/10.1021/ci0500132,245.0,"2-Methyl-4-(4-methylbenzylidene)-1,3-oxazol-5(4H)-one",O=C1OC(=NC1=Cc1ccc(C)cc1)C,Karthikeyan M.; Glen R.C.; Bender A. General melting point prediction based on a diverse compound dataset and artificial neural networks. J. Chem. Inf. Model.; 2005; 45(3); 581-3801
27552,13839151.0,,,27553.0,http://www.sigmaaldrich.com/united-states.html,71.5,"2,3-dimethylphenol",Cc1cccc(O)c1C,Sigma-Aldrich
12777,66894.0,,,12778.0,http://dx.doi.org/10.1021/ci0500132,140.0,TETRAPHENYLALLENE,C(=C(c1ccccc1)c1ccccc1)=C(c1ccccc1)c1ccccc1,Karthikeyan M.; Glen R.C.; Bender A. General melting point prediction based on a diverse compound dataset and artificial neural networks. J. Chem. Inf. Model.; 2005; 45(3); 581-4360
4410,109694.0,,,4411.0,http://www.alfa.com/en/GP100W.pgm?DSSTK=A11550,121.0,"4,4'-difluorobenzil",c1cc(ccc1C(=O)C(=O)c2ccc(cc2)F)F,Alfa Aesar
25685,4511280.0,,,25686.0,http://www.srcinc.com/what-we-do/product.aspx?id=133,95.0,lasiocarpine,CC(C)(O)C(O)(C(C)OC)C(=O)OCC1=CCN2CC[C@H](OC(=O)C(C)=[C@H]C)[C@@H]12,PHYSPROP
17345,2034.0,,,17346.0,http://dx.doi.org/10.1021/ci700307p,230.0,xanax,Clc1cc2C(=NCc3nnc(C)n3c2cc1)c4ccccc4,Hughes LD; Palmer DS; Nigsch F and Mitchell JBO. 2008 Why are some properties more difficult to predict than others? A study of QSPR models of solubility; melting point and LogP. J. Chem. Inf. Model. 2008. 48 (1). pp 220?493
25860,5246596.0,,,25861.0,http://www.srcinc.com/what-we-do/product.aspx?id=133,181.0,nifurtimox,O=S2(=O)CC(C)N(/N=C/c1ccc(o1)[N+]([O-])=O)CC2,PHYSPROP
6103,221836.0,,,6104.0,http://www.alfa.com/en/GP100W.pgm?DSSTK=H31108,56.0,6-chloro-2-methyl-3-nitropyridine,Cc1c(ccc(n1)Cl)[N+](=O)[O-],Alfa Aesar
5243,78467.0,,,5244.0,http://www.alfa.com/en/GP100W.pgm?DSSTK=A15266,174.0,4-hydroxyphenylacetamide,c1cc(ccc1CC(=O)N)O,Alfa Aesar
16274,4589305.0,,,16275.0,http://www.drugbank.ca/drugs/DB01079,155.0,Tegaserod,CCCCCN=C(/N)NNC=C2/C=Nc1ccc(cc12)CO,DrugBank
20000,8998.0,,,20001.0,http://www.srcinc.com/what-we-do/product.aspx?id=133,102.5,"hydrazine, (2,5-dichlorophenyl)-",NNc1cc(Cl)ccc1Cl,PHYSPROP
25713,4515720.0,,,25714.0,http://www.srcinc.com/what-we-do/product.aspx?id=133,84.5,vitamin d3,C=C3CCC(O)CC3=CC=C1/CCCC2(C)C(CCC12)C(C)CCCC(C)C,PHYSPROP
4666,13881395.0,,,4667.0,http://www.alfa.com/en/GP100W.pgm?DSSTK=A10314,24.0,"4-bromo-1,2-dichlorobenzene",c1cc(c(cc1Br)Cl)Cl,Alfa Aesar
23128,60867.0,,,23129.0,http://www.srcinc.com/what-we-do/product.aspx?id=133,108.0,perfluorododecanoic acid,FC(F)(C(F)(F)C(=O)O)C(F)(F)C(F)(F)C(F)(F)C(F)(F)C(F)(F)C(F)(F)C(F)(F)C(F)(F)C(F)(F)F,PHYSPROP
19271,11403.0,,,19272.0,http://www.srcinc.com/what-we-do/product.aspx?id=133,174.0,"2,4-dibromobenzoic acid",OC(=O)c1ccc(Br)cc1Br,PHYSPROP
9519,4720579.0,,,9520.0,http://dx.doi.org/10.1021/ci0500132,163.0,"1,4-bis(3-oxo-1-butenyl)benzene",O=C(C)C=Cc1ccc(cc1)C=CC(=O)C,Karthikeyan M.; Glen R.C.; Bender A. General melting point prediction based on a diverse compound dataset and artificial neural networks. J. Chem. Inf. Model.; 2005; 45(3); 581-1102
16392,580857.0,,,16393.0,http://www.drugbank.ca/drugs/DB00890,227.5,Dienestrol,Oc1ccc(cc1)C(=CC)/C(=C/C)c2ccc(O)cc2,DrugBank
14199,6709.0,,,14200.0,http://www.amazon.com/dp/B003XEQTLE,39.0,4-chloro-2-nitrotoluene,Cc1ccc(Cl)cc1[N+]([O-])=O,Aldrich Chemical Company; Aldrich Catalog-Handbook of Fine Chemicals; Milwaukee; WI; 1984.
18979,12025.0,,,18980.0,http://www.srcinc.com/what-we-do/product.aspx?id=133,108.0,fluoroacetamide,FCC(N)=O,PHYSPROP
14862,9666901.0,,,14863.0,http://msds.chem.ox.ac.uk/,243.0,1-(Morpholin-4-yl)ethanesulfonic acid,OS(=O)(=O)C(C)N1CCOCC1,academic website
20534,7589.0,,,20535.0,http://www.srcinc.com/what-we-do/product.aspx?id=133,128.5,tert-butylacrylamide,CC(C)(C)NC(=O)C=C,PHYSPROP
21428,5573.0,,,21429.0,http://www.srcinc.com/what-we-do/product.aspx?id=133,76.0,hexobendine,COc1c(cc(cc1OC)C(=O)OCCCN(C)CCN(C)CCCOC(=O)c2cc(OC)c(OC)c(OC)c2)OC,PHYSPROP
5865,177643.0,,,5866.0,http://www.alfa.com/en/GP100W.pgm?DSSTK=L12836,154.0,5-chlorobenzo[b]thiophene-3-acetic acid,c1cc2c(cc1Cl)c(cs2)CC(=O)O,Alfa Aesar
17805,20844.0,,,17806.0,http://www.srcinc.com/what-we-do/product.aspx?id=133,-84.8,"nonane, 3-methyl-",CCC(C)CCCCCC,PHYSPROP
7657,13872667.0,,,7658.0,http://www.alfa.com/en/GP100W.pgm?DSSTK=A10325,-32.0,methyl chloroacetate,COC(=O)CCl,Alfa Aesar
23587,63533.0,,,23588.0,http://www.srcinc.com/what-we-do/product.aspx?id=133,40.0,benzyl phenyl ether,C(Oc1ccccc1)c2ccccc2,PHYSPROP
9570,4645752.0,,,9571.0,http://dx.doi.org/10.1021/ci0500132,267.0,"2-(7-hydroxyquinolin-2(1H)-ylidene)-1H-indene-1,3(2H)-dione",O=C1c2ccccc2C(=O)C1=C1Nc2cc(O)ccc2C=C1,Karthikeyan M.; Glen R.C.; Bender A. General melting point prediction based on a diverse compound dataset and artificial neural networks. J. Chem. Inf. Model.; 2005; 45(3); 581-1153
17987,18167.0,,,17988.0,http://www.srcinc.com/what-we-do/product.aspx?id=133,213.0,reposal,O=C1NC(=O)NC(=O)C1(CC)C3=CC2CCC(C2)C3,PHYSPROP
25403,2005797.0,,,25404.0,http://www.srcinc.com/what-we-do/product.aspx?id=133,165.0,1-acetyl-2-thiourea,CC(=O)NC(N)=S,PHYSPROP