,csid,donotuse,donotusebecause,key,link,mpC,name,smiles,source
12212,1268113.0,,,12213.0,http://dx.doi.org/10.1021/ci0500132,180.0,"(4E)-4-{[5-(4-Bromophenyl)-2-furyl]methylene}-2-phenyl-1,3-oxazol-5(4H)-one",Brc1ccc(cc1)c1oc(cc1)C=C1N=C(OC1=O)c1ccccc1,Karthikeyan M.; Glen R.C.; Bender A. General melting point prediction based on a diverse compound dataset and artificial neural networks. J. Chem. Inf. Model.; 2005; 45(3); 581-3795
4835,10819312.0,,,4836.0,http://www.alfa.com/en/GP100W.pgm?DSSTK=H27482,157.0,4-chloro-2-(1h-pyrazol-3-yl)phenol,c1cc(c(cc1Cl)c2cc[nH]n2)O,Alfa Aesar
5453,2056113.0,,,5454.0,http://www.alfa.com/en/GP100W.pgm?DSSTK=L16318,52.0,4-nitro-2-(trifluoromethyl)benzonitrile,c1cc(c(cc1[N+](=O)[O-])C(F)(F)F)C#N,Alfa Aesar
1876,81059.0,,,1877.0,http://www.alfa.com/en/GP100W.pgm?DSSTK=B21173,87.0,2-acetylbenzo[b]thiophene,CC(=O)c1cc2ccccc2s1,Alfa Aesar
17507,28481.0,,,17508.0,http://www.srcinc.com/what-we-do/product.aspx?id=133,-5.0,"naphthalene, 1,2,3,4-tetrahydro-2,3-dimethyl-",CC1Cc2ccccc2CC1C,PHYSPROP
13197,10775.0,,,13198.0,http://www.amazon.com/dp/B002IYRJWI,-157.0,"2,3-dimethyl-1-butene",C=C(C)C(C)C,American Petroleum Institute. Research Project 44; Selected Values of Properties of Hydrocarbons and Related Compounds. Texas A & M University; College Station; TX; 1973.
12172,1622395.0,,,12173.0,http://dx.doi.org/10.1021/ci0500132,147.0,"benzamide, N-(4-butylphenyl)-4-methoxy-",O=C(Nc1ccc(cc1)CCCC)c1ccc(OC)cc1,Karthikeyan M.; Glen R.C.; Bender A. General melting point prediction based on a diverse compound dataset and artificial neural networks. J. Chem. Inf. Model.; 2005; 45(3); 581-3755
26029,10438905.0,,,26030.0,http://www.srcinc.com/what-we-do/product.aspx?id=133,102.0,"2h-benzotriazole-1-butanamide, 4-methyl-",NC(=O)CCC(C)n1nc2ccccc2n1,PHYSPROP
19270,11399.0,,,19271.0,http://www.srcinc.com/what-we-do/product.aspx?id=133,132.0,"benzoic acid, 2,5-dimethyl-",Cc1ccc(C)cc1C(O)=O,PHYSPROP
10574,2034916.0,,,10575.0,http://dx.doi.org/10.1021/ci0500132,229.0,"5,7-dimethyl-3-[(E)-pyridin-4-yldiazenyl]pyrazolo[1,5-a]pyrimidin-2-amine",Nc1[nH0][nH0]2c(N=C(C)C=C2C)c1N=Nc1cc[nH0]cc1,Karthikeyan M.; Glen R.C.; Bender A. General melting point prediction based on a diverse compound dataset and artificial neural networks. J. Chem. Inf. Model.; 2005; 45(3); 581-2157
24911,205258.0,,,24912.0,http://www.srcinc.com/what-we-do/product.aspx?id=133,298.0,limonin,CC35CCC1C67COC(=O)CC7OC(C)(C)C6CC(=O)C1(C)C45OC4C(=O)OC3c2ccoc2,PHYSPROP
12889,18644.0,,,12890.0,http://dx.doi.org/10.1021/ci0500132,50.0,"1,3,3-Trimethyl-1-phenylindan",CC1(C)CC(C)(c2ccccc21)c1ccccc1,Karthikeyan M.; Glen R.C.; Bender A. General melting point prediction based on a diverse compound dataset and artificial neural networks. J. Chem. Inf. Model.; 2005; 45(3); 581-4472
5912,193727.0,,,5913.0,http://www.alfa.com/en/GP100W.pgm?DSSTK=A18780,23.0,5-fluoro-2-nitrobenzotrifluoride,c1cc(c(cc1F)C(F)(F)F)[N+](=O)[O-],Alfa Aesar
2407,2054084.0,,,2408.0,http://www.alfa.com/en/GP100W.pgm?DSSTK=L19148,69.0,2-chloro-6-fluoro-3-methylbenzyl alcohol,Cc1ccc(c(c1Cl)CO)F,Alfa Aesar
21389,5786.0,,,21390.0,http://www.srcinc.com/what-we-do/product.aspx?id=133,48.5,phencarbamide,CCN(CC)CCSC(=O)N(c1ccccc1)c2ccccc2,PHYSPROP
21147,6366.0,,,21148.0,http://www.srcinc.com/what-we-do/product.aspx?id=133,181.0,"2,2-bis(4-hydroxy-3,5-dibromophenyl)propane",Brc1cc(cc(Br)c1O)C(C)(C)c2cc(Br)c(O)c(Br)c2,PHYSPROP
22052,2690.0,,,22053.0,http://www.srcinc.com/what-we-do/product.aspx?id=133,95.0,clobetasone-17-butyrate,ClCC(=O)C4(OC(=O)CCC)C(C)CC3C2CCC1=CC(=O)C=CC1(C)C2(F)C(=O)CC34C,PHYSPROP
4918,7047.0,,,4919.0,http://www.alfa.com/en/GP100W.pgm?DSSTK=B21632,60.0,4-chloro-3-nitrobenzenesulfonyl chloride,c1cc(c(cc1S(=O)(=O)Cl)[N+](=O)[O-])Cl,Alfa Aesar
15492,4286892.0,,,15493.0,http://msds.chem.ox.ac.uk/,199.0,"4-Nitrobenzene-1,2-diamine",Nc1ccc(cc1N)[N+]([O-])=O,academic website
27357,4976780.0,,,27358.0,http://onlinelibrary.wiley.com/doi/10.1111/j.2042-7158.1997.tb06837.x/pdf,203.5,"(2E)-3-(3,4-Dihydroxyphenyl)-1-phenyl-2-propen-1-one",OC1=C(C=CC(=C1)\C=C\C(=O)C2=CC=CC=C2)O,Journal of Pharmacy and Pharmacology
18424,14906.0,,,18425.0,http://www.srcinc.com/what-we-do/product.aspx?id=133,206.5,epithiazide,NS(=O)(=O)c2cc1c(NC(NS1(=O)=O)CSCC(F)(F)F)cc2Cl,PHYSPROP
22623,36319.0,,,22624.0,http://www.srcinc.com/what-we-do/product.aspx?id=133,46.0,dimethachlor,ClCC(=O)N(CCOC)c1c(C)cccc1C,PHYSPROP
11384,2031821.0,,,11385.0,http://dx.doi.org/10.1021/ci0500132,112.0,"6-(1-hydroxy-1-propylbutyl)-2,2,6-trimethyltetrahydro-2H-pyran-3-carboxylic acid",O=C(O)C1CCC(OC1(C)C)(C)C(O)(CCC)CCC,Karthikeyan M.; Glen R.C.; Bender A. General melting point prediction based on a diverse compound dataset and artificial neural networks. J. Chem. Inf. Model.; 2005; 45(3); 581-2967
20283,8067.0,,,20284.0,http://www.srcinc.com/what-we-do/product.aspx?id=133,231.8,hexachlorobenzene,Clc1c(Cl)c(Cl)c(Cl)c(Cl)c1Cl,PHYSPROP
2117,2073913.0,,,2118.0,http://www.alfa.com/en/GP100W.pgm?DSSTK=L13337,51.0,2-bromo-4'-(diethylamino)acetophenone,CCN(CC)c1ccc(cc1)C(=O)CBr,Alfa Aesar
28386,33985.0,,,28387.0,http://dx.doi.org/10.1016/j.chemosphere.2013.10.095,112.0,PCB-180,C1=C(C(=CC(=C1Cl)Cl)Cl)C2=CC(=C(C(=C2Cl)Cl)Cl)Cl,Abraham M.H. and Acree Jr. W.E. The solubility of liquid and solid compounds in dry octan-1-ol. Chemosphere (2013)
12011,2029531.0,,,12012.0,http://dx.doi.org/10.1021/ci0500132,158.0,"5,10,13-trimethyltetradecahydrospiro[cyclopenta[a]phenanthrene-3,2'-[1,3]dioxolan]-17(2H)-one",O=C1CCC2C3CCC4(C)CC5(OCCO5)CCC4(C)C3CCC12C,Karthikeyan M.; Glen R.C.; Bender A. General melting point prediction based on a diverse compound dataset and artificial neural networks. J. Chem. Inf. Model.; 2005; 45(3); 581-3594
28055,3008.0,,,28056.0,http://dx.doi.org/10.1080/10629360701430124,158.5,diuron,Clc1ccc(NC(=O)N(C)C)cc1Cl,RAEVSKY OA; PERLOVICH GL and SCHAPER K-J. Physicochemical properties/descriptors governing the solubility and partitioning of chemicals in water-solvent-gas systems. Part 2. Solubility in 1-octanol. SAR and QSAR in Environmental Research Vol. 18 Nos. 5–6 July–September 2007 543–578
9686,4645391.0,,,9687.0,http://dx.doi.org/10.1021/ci0500132,76.0,"ethyl (2E)-2-[(4-chlorophenyl)hydrazono]-4,4,4-trifluoro-3-oxobutanoate",Clc1ccc(NN=C(C(=O)OCC)C(=O)C(F)(F)F)cc1,Karthikeyan M.; Glen R.C.; Bender A. General melting point prediction based on a diverse compound dataset and artificial neural networks. J. Chem. Inf. Model.; 2005; 45(3); 581-1269
12472,408094.0,,,12473.0,http://dx.doi.org/10.1021/ci0500132,230.0,2-(Methylamino)naphthoquinone,O=C1C=C(NC)C(=O)c2ccccc12,Karthikeyan M.; Glen R.C.; Bender A. General melting point prediction based on a diverse compound dataset and artificial neural networks. J. Chem. Inf. Model.; 2005; 45(3); 581-4055
13667,80791.0,,,13668.0,http://www.amazon.com/dp/088318205X,-81.0,2-methyl-4-heptanol,CC(C)CC(O)CCC,Wilhoit R. C. Physical and Thermodynamic Properties of Aliphatic Alcohols. (Supplement to Journal of Physical and Chemical Reference Data; Vol 2; No. 1.); American Chemical Society; Washington; 1973.
13962,69116.0,,,13963.0,http://www.amazon.com/dp/B003XEQTLE,92.0,(-)-2-amino-3-phenyl-1-propanol,NC(Cc1ccccc1)CO,Aldrich Chemical Company; Aldrich Catalog-Handbook of Fine Chemicals; Milwaukee; WI; 1984.
22812,54989.0,,,22813.0,http://www.srcinc.com/what-we-do/product.aspx?id=133,-55.6,"butanoic acid, octyl ester",CCCCCCCCOC(=O)CCC,PHYSPROP
7381,23083.0,,,7382.0,http://www.alfa.com/en/GP100W.pgm?DSSTK=B24998,88.0,isopropyl n-phenylcarbamate,CC(C)OC(=O)Nc1ccccc1,Alfa Aesar
8077,67050.0,,,8078.0,http://www.alfa.com/en/GP100W.pgm?DSSTK=L06154,120.0,nicotinanilide,c1ccc(cc1)NC(=O)c2cccnc2,Alfa Aesar
7579,2082914.0,,,7580.0,http://www.alfa.com/en/GP100W.pgm?DSSTK=L05657,165.0,methyl 4-(methylsulfonylmethyl)benzoate,COC(=O)c1ccc(cc1)CS(=O)(=O)C,Alfa Aesar
25421,2016563.0,,,25422.0,http://www.srcinc.com/what-we-do/product.aspx?id=133,151.5,chlorthiamid,S=C(N)c1c(Cl)cccc1Cl,PHYSPROP
10555,2035173.0,,,10556.0,http://dx.doi.org/10.1021/ci0500132,150.0,"3,3-dimethyl-4-phenylazetidin-2-one",O=C1NC(c2ccccc2)C1(C)C,Karthikeyan M.; Glen R.C.; Bender A. General melting point prediction based on a diverse compound dataset and artificial neural networks. J. Chem. Inf. Model.; 2005; 45(3); 581-2138
25135,455411.0,,,25136.0,http://www.srcinc.com/what-we-do/product.aspx?id=133,64.0,2-methylhexanedioic acid,OC(=O)CCCC(C)C(=O)O,PHYSPROP
18326,15468.0,,,18327.0,http://www.srcinc.com/what-we-do/product.aspx?id=133,-74.1,"1,3-diethyl-5-methylbenzene",CCc1cc(C)cc(CC)c1,PHYSPROP
11979,2029622.0,,,11980.0,http://dx.doi.org/10.1021/ci0500132,180.0,21-phenylpregn-16-en-20-yn-3-yl formate,O=COC1CCC2(C)C(CCC3C4CC=C(C#Cc5ccccc5)C4(C)CCC32)C1,Karthikeyan M.; Glen R.C.; Bender A. General melting point prediction based on a diverse compound dataset and artificial neural networks. J. Chem. Inf. Model.; 2005; 45(3); 581-3562
17298,29111.0,,,17299.0,http://dx.doi.org/10.1021/ci700307p,261.0,fludrocortisone,OCC(=O)[C@@]4(O)CC[C@@H]2[C@]4(C)C[C@H](O)[C@]1(F)[C@@]3(C)CCC(=O)C=C3CC[C@H]12,Hughes LD; Palmer DS; Nigsch F and Mitchell JBO. 2008 Why are some properties more difficult to predict than others? A study of QSPR models of solubility; melting point and LogP. J. Chem. Inf. Model. 2008. 48 (1). pp 220?446
24476,84478.0,,,24477.0,http://www.srcinc.com/what-we-do/product.aspx?id=133,107.5,methyl (1-phenylsulfonyl) cyclobutane carboxylat,COC(=O)C1(CCC1)S(=O)(=O)c2ccccc2,PHYSPROP
7554,21106541.0,,,7555.0,http://www.alfa.com/en/GP100W.pgm?DSSTK=B21371,21.0,methyl 3-chlorobenzoate,COC(=O)c1cccc(c1)Cl,Alfa Aesar
2366,2058370.0,,,2367.0,http://www.alfa.com/en/GP100W.pgm?DSSTK=B23937,59.0,2-chloro-5-(trifluoromethyl)benzyl alcohol,c1cc(c(cc1C(F)(F)F)CO)Cl,Alfa Aesar
26263,10468445.0,,,26264.0,http://www.srcinc.com/what-we-do/product.aspx?id=133,148.5,cholesterol,CC(C)CCCC(C)[C@H]2CC[C@H]3C4CC=C1C[C@@H](O)CCC1(C)[C@H]4CCC23C,PHYSPROP
18821,12691.0,,,18822.0,http://www.srcinc.com/what-we-do/product.aspx?id=133,44.5,1-acetoxynaphthalene,CC(=O)Oc2cccc1ccccc12,PHYSPROP
27319,553827.0,,,27320.0,http://onlinelibrary.wiley.com/doi/10.1111/j.2042-7158.1997.tb06837.x/pdf,83.5,(2E)-1-(2-Hydroxyphenyl)-3-phenyl-2-propen-1-one,OC1=C(C=CC=C1)C(\C=C\C2=CC=CC=C2)=O,Journal of Pharmacy and Pharmacology
20659,7292.0,,,20660.0,http://www.srcinc.com/what-we-do/product.aspx?id=133,74.0,4-(isopropylamino) diphenylamine,CC(C)Nc1ccc(cc1)Nc2ccccc2,PHYSPROP
26466,13837112.0,x,unlikely to be higher mp than bromo analog at -40C JCB,26467.0,http://www.srcinc.com/what-we-do/product.aspx?id=133,-26.0,(chloromethyl)oxirane,ClCC1CO1,PHYSPROP
9671,4645424.0,,,9672.0,http://dx.doi.org/10.1021/ci0500132,213.0,"(2Z)-3-furan-2-yl-2-{4-methyl-5-[(E)-(2-nitrophenyl)diazenyl]-1,3-thiazol-2-yl}prop-2-enenitrile",s1c(N=Nc2ccccc2[N+](=O)[O-])c([nH0]c1C(C#N)=Cc1occc1)C,Karthikeyan M.; Glen R.C.; Bender A. General melting point prediction based on a diverse compound dataset and artificial neural networks. J. Chem. Inf. Model.; 2005; 45(3); 581-1254
6978,14810.0,,,6979.0,http://www.alfa.com/en/GP100W.pgm?DSSTK=A11563,195.0,diphenylphosphinic acid,c1ccc(cc1)P(=O)(c2ccccc2)O,Alfa Aesar
16282,54810.0,,,16283.0,http://www.drugbank.ca/drugs/DB01076,159.95,Atorvastatin,O[C@H](CCn1c(c(c(c1C(C)C)C(=O)Nc2ccccc2)c3ccccc3)c4ccc(F)cc4)C[C@@H](O)CC(=O)O,DrugBank
12741,73134.0,,,12742.0,http://dx.doi.org/10.1021/ci0500132,55.0,Methylenedianiline,Nc1ccccc1Cc1ccccc1N,Karthikeyan M.; Glen R.C.; Bender A. General melting point prediction based on a diverse compound dataset and artificial neural networks. J. Chem. Inf. Model.; 2005; 45(3); 581-4324
12849,46175.0,,,12850.0,http://dx.doi.org/10.1021/ci0500132,144.0,Doxofylline,O=C1N(C)c2[nH0]c[nH0](CC3OCCO3)c2C(=O)N1C,Karthikeyan M.; Glen R.C.; Bender A. General melting point prediction based on a diverse compound dataset and artificial neural networks. J. Chem. Inf. Model.; 2005; 45(3); 581-4432
18830,12668.0,,,18831.0,http://www.srcinc.com/what-we-do/product.aspx?id=133,164.5,carbic anhydride,O=C1OC(=O)C3C1C2CC3C=C2,PHYSPROP
7300,8552.0,,,7301.0,http://www.alfa.com/en/GP100W.pgm?DSSTK=A13789,-4.0,hexanoic acid,CCCCCC(=O)O,Alfa Aesar
26056,10439505.0,,,26057.0,http://www.srcinc.com/what-we-do/product.aspx?id=133,40.5,"butanamide, 4-(benzoyloxy)-n,n-dimethyl-",CN(C)C(=O)CCCOC(=O)c1ccccc1,PHYSPROP
21361,5931.0,,,21362.0,http://www.srcinc.com/what-we-do/product.aspx?id=133,-24.0,diethyl sulfate,O=S(=O)(OCC)OCC,PHYSPROP
27409,11109.0,,,27410.0,http://webbook.nist.gov/cgi/cbook.cgi?ID=C592416&Units=SI&Mask=7,-140.15,1-hexene,C=CCCCC,NIST Web Book
1107,58578.0,,,1108.0,http://www.alfa.com/en/GP100W.pgm?DSSTK=A16748,92.0,"2,2':5',2''-terthiophene",c1cc(sc1)c2ccc(s2)c3cccs3,Alfa Aesar
27153,21130684.0,,,27154.0,http://scripts.iucr.org/cgi-bin/paper?hg6056,114.55,"3-[3-(4-Butoxyphenyl)-5-thioxo-4,5-dihydro-1H-1,2,4-triazol-1-yl]propanenitrile",N#CCCN1N=C(NC1=S)c2ccc(OCCCC)cc2,IUCr
13132,62241.0,,,13133.0,http://www.amazon.com/dp/B002IYRJWI,-90.0,3-methyl-1-butyne,C#CC(C)C,American Petroleum Institute. Research Project 44; Selected Values of Properties of Hydrocarbons and Related Compounds. Texas A & M University; College Station; TX; 1973.
17254,2385.0,,,17255.0,http://dx.doi.org/10.1021/ci700307p,166.5,secbutabarbital,O=C1NC(=O)NC(=O)C1(CC)C(C)CC,Hughes LD; Palmer DS; Nigsch F and Mitchell JBO. 2008 Why are some properties more difficult to predict than others? A study of QSPR models of solubility; melting point and LogP. J. Chem. Inf. Model. 2008. 48 (1). pp 220?402
21636,4629.0,,,21637.0,http://www.srcinc.com/what-we-do/product.aspx?id=133,47.75,phosalone,CCOP(=S)(OCC)SCN1c2ccc(Cl)cc2OC1=O,PHYSPROP
20682,7248.0,,,20683.0,http://www.srcinc.com/what-we-do/product.aspx?id=133,-86.3,m-methylstyrene,Cc1cccc(C=C)c1,PHYSPROP
14317,11437.0,,,14318.0,http://www.amazon.com/dp/B002IYRJWI,7.0,"3,3'-dimethylbiphenyl",Cc1cccc(c1)c2cc(C)ccc2,American Petroleum Institute. Research Project 44; Selected Values of Properties of Hydrocarbons and Related Compounds. Texas A & M University; College Station; TX; 1973.
1974,5373880.0,,,1975.0,http://www.alfa.com/en/GP100W.pgm?DSSTK=L17672,134.0,"2-amino-5-bromo-3,4-dimethylpyridine",Cc1c(c(ncc1Br)N)C,Alfa Aesar
15335,21106126.0,,,15336.0,http://msds.chem.ox.ac.uk/,118.5,3-(1H-Imidazol-1-yl)acrylaldehyde,O=CC=Cn1ccnc1,academic website
18378,15161.0,,,18379.0,http://www.srcinc.com/what-we-do/product.aspx?id=133,83.0,"benzoic acid, 3,4,5-trimethoxy-, methyl ester",COc1c(cc(cc1OC)C(=O)OC)OC,PHYSPROP
18477,14693.0,,,18478.0,http://www.srcinc.com/what-we-do/product.aspx?id=133,-57.0,2-bromoethylcyclohexane,BrCCC1CCCCC1,PHYSPROP
13271,971.0,,,13272.0,http://www.questia.com/library/book/physical_properties_of_chemical_compounds_by_robert_rickert_dreisbach.jsp,41.0,phenol,Oc1ccccc1,Dreisbach R. R. Physical Properties of Chemical Compounds; Vol. I; American Chemical Society; Washington; 1955.
14988,64377.0,,,14989.0,http://msds.chem.ox.ac.uk/,36.0,1-{[2-(4-Ethoxyphenyl)-2-methylpropoxy]methyl}-3-phenoxybenzene,CCOc1ccc(cc1)C(C)(C)COCc3cc(Oc2ccccc2)ccc3,academic website
6130,311904.0,,,6131.0,http://www.alfa.com/en/GP100W.pgm?DSSTK=B24633,76.0,6-fluoroindole,c1cc(cc2c1cc[nH]2)F,Alfa Aesar
28244,864.0,,,28245.0,http://msds.chem.ox.ac.uk/ME/methyl_alcohol.html,-98.0,methanol,CO,Oxford
6785,13927.0,,,6786.0,http://www.alfa.com/en/GP100W.pgm?DSSTK=A18405,33.0,dibenzosuberone,c1ccc2c(c1)CCc3ccccc3C2=O,Alfa Aesar
2,80080.0,,,3.0,http://www.alfa.com/en/GP100W.pgm?DSSTK=L15884,33.0,2-(1-piperazinyl)pyrimidine,c1cnc(nc1)N2CCNCC2,Alfa Aesar
17229,2625.0,,,17230.0,http://dx.doi.org/10.1021/ci700307p,57.0,chlorpromazine,CN(C)CCCN1c3ccccc3Sc2ccc(Cl)cc12,Hughes LD; Palmer DS; Nigsch F and Mitchell JBO. 2008 Why are some properties more difficult to predict than others? A study of QSPR models of solubility; melting point and LogP. J. Chem. Inf. Model. 2008. 48 (1). pp 220?377
25448,2297300.0,,,25449.0,http://www.srcinc.com/what-we-do/product.aspx?id=133,220.5,"glycine, n,n'-(1,2-dithioxo-1,2-ethanediyl)bis-",O=C(O)CN=C(/S)C(=S)NCC(=O)O,PHYSPROP
5765,4513854.0,,,5766.0,http://www.alfa.com/en/GP100W.pgm?DSSTK=B24824,121.0,5-bromo-2-methoxy-beta-nitrostyrene,COc1ccc(cc1/C=C/[N+](=O)[O-])Br,Alfa Aesar
15153,528656.0,,,15154.0,http://msds.chem.ox.ac.uk/,79.0,"2,4,5,6-Tetrafluoroisophthalonitrile",Fc1c(C#N)c(F)c(C#N)c(F)c1F,academic website
24084,71396.0,,,24085.0,http://www.srcinc.com/what-we-do/product.aspx?id=133,134.0,"beta-d-glucopyranose, pentaacetate",O=C(C)OC1OC(COC(C)=O)C(OC(C)=O)C(OC(C)=O)C1OC(C)=O,PHYSPROP
9970,4510345.0,,,9971.0,http://dx.doi.org/10.1021/ci0500132,233.0,Isatin Thiosemicarbazone,S=C(N)NN=C1c2ccccc2NC1=O,Karthikeyan M.; Glen R.C.; Bender A. General melting point prediction based on a diverse compound dataset and artificial neural networks. J. Chem. Inf. Model.; 2005; 45(3); 581-1553
21055,6562.0,,,21056.0,http://www.srcinc.com/what-we-do/product.aspx?id=133,150.0,3'-methylphthalanilic acid,O=C(Nc1cc(C)ccc1)c2ccccc2C(=O)O,PHYSPROP
26774,21106136.0,,,26775.0,http://www.srcinc.com/what-we-do/product.aspx?id=133,22.0,"benzoyl chloride, 4-methoxy-",COc1ccc(cc1)C(Cl)=O,PHYSPROP
13721,13471.0,,,13722.0,http://www.amazon.com/dp/B002IYRJWI,-60.0,1-methyl-2-propylbenzene,CCCc1ccccc1C,American Petroleum Institute. Research Project 44; Selected Values of Properties of Hydrocarbons and Related Compounds. Texas A & M University; College Station; TX; 1973.
11566,2031056.0,x,salt,11567.0,http://dx.doi.org/10.1021/ci0500132,167.0,methyl [2-(2-aminophenyl)ethyl]carbamate hydrochloride,Cl.O=C(OC)NCCc1ccccc1N,Karthikeyan M.; Glen R.C.; Bender A. General melting point prediction based on a diverse compound dataset and artificial neural networks. J. Chem. Inf. Model.; 2005; 45(3); 581-3149
12589,227823.0,,,12590.0,http://dx.doi.org/10.1021/ci0500132,177.0,"4-Nitrophenyl 2,3,4,6-tetra-O-acetylhexopyranoside",O=[N+]([O-])c1ccc(OC2OC(COC(=O)C)C(OC(=O)C)C(OC(=O)C)C2OC(=O)C)cc1,Karthikeyan M.; Glen R.C.; Bender A. General melting point prediction based on a diverse compound dataset and artificial neural networks. J. Chem. Inf. Model.; 2005; 45(3); 581-4172
867,1246131.0,,,868.0,http://www.alfa.com/en/GP100W.pgm?DSSTK=H52771,37.0,(S)-1-boc-3-hydroxypiperidine,CC(C)(C)OC(=O)N1CCC[C@@H](C1)O,Alfa Aesar
2760,2040114.0,,,2761.0,http://www.alfa.com/en/GP100W.pgm?DSSTK=L19876,152.0,2-iodo-3-methylbenzoic acid,Cc1cccc(c1I)C(=O)O,Alfa Aesar
16472,3918.0,,,16473.0,http://www.drugbank.ca/drugs/DB00454,187.5,Meperidine,CN1CCC(CC1)(C(=O)OCC)c2ccccc2,DrugBank
791,13544963.0,,,792.0,http://www.alfa.com/en/GP100W.pgm?DSSTK=B24600,250.0,1-(4-nitrophenylazo)-2-naphthol,c1ccc2c(c1)ccc(c2/N=N/c3ccc(cc3)[N+](=O)[O-])O,Alfa Aesar
10745,2034436.0,,,10746.0,http://dx.doi.org/10.1021/ci0500132,178.0,"1,2-dibenzyltriphenylene",c1ccc(cc1)Cc1ccc2c3ccccc3c3ccccc3c2c1Cc1ccccc1,Karthikeyan M.; Glen R.C.; Bender A. General melting point prediction based on a diverse compound dataset and artificial neural networks. J. Chem. Inf. Model.; 2005; 45(3); 581-2328
16361,2341.0,,,16362.0,http://www.drugbank.ca/drugs/DB00484,207.5,Brimonidine,Brc2c3nccnc3ccc2NC1=NCCN1,DrugBank
16705,4444437.0,,,16706.0,http://www.drugbank.ca/drugs/DB00132,-16.5,Alpha-Linolenic Acid,O=C(O)CCCCCCC/C=CC/C=CC/C=CCC,DrugBank
21569,4890.0,,,21570.0,http://www.srcinc.com/what-we-do/product.aspx?id=133,193.5,ribostamycin,NC3C(O)C(O)C(CN)OC3OC2C(N)CC(N)C(O)C2OC1OC(CO)C(O)C1O,PHYSPROP
25993,10437735.0,,,25994.0,http://www.srcinc.com/what-we-do/product.aspx?id=133,64.0,"1,2,4-triazole,1-(4-fluorobenzyl)-",Fc2ccc(Cn1cncn1)cc2,PHYSPROP
27092,9501918.0,,,27093.0,http://scripts.iucr.org/cgi-bin/paper?ln1121,179.85,"(3Z)-1-Acetyl-3-[1-(4-methoxyphenyl)-2-oxo-2-phenylethylidene]-1,3-dihydro-2H-indol-2-one",O=C(c1ccccc1)C(=C3/c2ccccc2N(C3=O)C(=O)C)/c4ccc(OC)cc4,IUCr
13638,7802.0,,,13639.0,http://www.amazon.com/dp/B002IYRJWI,-21.0,2-octanone,CC(=O)CCCCCC,American Petroleum Institute. Research Project 44; Selected Values of Properties of Hydrocarbons and Related Compounds. Texas A & M University; College Station; TX; 1973.