,csid,donotuse,donotusebecause,key,link,mpC,name,smiles,source
8056,64084.0,,,8057.0,http://www.alfa.com/en/GP100W.pgm?DSSTK=A14336,169.0,N-formylurea,C(=O)NC(=O)N,Alfa Aesar
23871,67783.0,,,23872.0,http://www.srcinc.com/what-we-do/product.aspx?id=133,45.5,4-phenoxy-butyronitrile,N#CCCCOc1ccccc1,PHYSPROP
1916,243075.0,,,1917.0,http://www.alfa.com/en/GP100W.pgm?DSSTK=H27215,169.0,2-amino-3-chloropyrazine,c1cnc(c(n1)N)Cl,Alfa Aesar
14467,8080.0,,,14468.0,http://www.amazon.com/dp/B003XEQTLE,88.0,"2,4-dinitroanisole",COc1ccc(cc1[N+]([O-])=O)[N+]([O-])=O,Aldrich Chemical Company; Aldrich Catalog-Handbook of Fine Chemicals; Milwaukee; WI; 1984.
21065,6538.0,,,21066.0,http://www.srcinc.com/what-we-do/product.aspx?id=133,94.0,benzo(f)quinoline,c2cc1ncccc1c3ccccc23,PHYSPROP
12546,258907.0,,,12547.0,http://dx.doi.org/10.1021/ci0500132,57.0,"ethyl 2-methyl-1,3-thiazole-4-carboxylate",s1cc([nH0]c1C)C(=O)OCC,Karthikeyan M.; Glen R.C.; Bender A. General melting point prediction based on a diverse compound dataset and artificial neural networks. J. Chem. Inf. Model.; 2005; 45(3); 581-4129
22724,43168.0,,,22725.0,http://www.srcinc.com/what-we-do/product.aspx?id=133,207.0,"dibenzofuran, 1,3,7,9-tetrachloro-",Clc2cc1oc3cc(Cl)cc(Cl)c3c1c(Cl)c2,PHYSPROP
21414,5637.0,,,21415.0,http://www.srcinc.com/what-we-do/product.aspx?id=133,147.5,apholate,C1CN1p2(np(np(n2)(N3CC3)N4CC4)(N5CC5)N6CC6)N7CC7,PHYSPROP
27472,11776.0,,,27473.0,http://www.aapspharmscitech.org/view.asp?art=pt070126,124.0,"1,3,5-tribromobenzene",Brc1cc(Br)cc(Br)c1,Sepassi K; Yalkowsky SH; AAPS PharmSciTech; 7(1); E1-E8 (2006)
15263,11380.0,,,15264.0,http://msds.chem.ox.ac.uk/,170.5,"2-Hydroxy-3,5-dinitrobenzoic acid",O=[N+]([O-])c1cc(cc(C(=O)O)c1O)[N+]([O-])=O,academic website
23392,62477.0,,,23393.0,http://www.srcinc.com/what-we-do/product.aspx?id=133,230.0,3-hydroxy-4-nitrobenzoic acid,O=[N+]([O-])c1ccc(cc1O)C(=O)O,PHYSPROP
8465,17481.0,,,8466.0,http://www.alfa.com/en/GP100W.pgm?DSSTK=B24126,-41.0,tert-butylcyclohexane,CC(C)(C)C1CCCCC1,Alfa Aesar
20496,7664.0,,,20497.0,http://www.srcinc.com/what-we-do/product.aspx?id=133,-27.0,"1,3,5-triazine, hexahydro-1,3,5-trimethyl-",CN1CN(C)CN(C)C1,PHYSPROP
19387,11117.0,,,19388.0,http://www.srcinc.com/what-we-do/product.aspx?id=133,-89.0,"1,3-cyclohexadiene",C1=CC=CCC1,PHYSPROP
9873,4644560.0,,,9874.0,http://dx.doi.org/10.1021/ci0500132,161.0,(2E)-3-[3-bromo-5-(carboxyethynyl)phenyl]prop-2-enoic acid,Brc1cc(C#CC(=O)O)cc(c1)C=CC(=O)O,Karthikeyan M.; Glen R.C.; Bender A. General melting point prediction based on a diverse compound dataset and artificial neural networks. J. Chem. Inf. Model.; 2005; 45(3); 581-1456
17506,28496.0,,,17507.0,http://www.srcinc.com/what-we-do/product.aspx?id=133,70.4,leptophos,Clc2cc(OP(=S)(OC)c1ccccc1)c(Cl)cc2Br,PHYSPROP
20898,6848.0,,,20899.0,http://www.srcinc.com/what-we-do/product.aspx?id=133,210.1,"1,1':4',1''-terphenyl",c1cc(ccc1)c2ccc(cc2)c3ccccc3,PHYSPROP
6281,66482.0,,,6282.0,http://www.alfa.com/en/GP100W.pgm?DSSTK=A15188,163.0,9-anthracenemethanol,c1ccc2c(c1)cc3ccccc3c2CO,Alfa Aesar
2026,3077533.0,,,2027.0,http://www.alfa.com/en/GP100W.pgm?DSSTK=H26668,171.0,2-amino-6-methoxy-3-nitropyridine,COc1ccc(c(n1)N)[N+](=O)[O-],Alfa Aesar
12416,524087.0,,,12417.0,http://dx.doi.org/10.1021/ci0500132,185.0,"Ethyl-4-(4-chlorphenyl)-6-methyl-2-oxo-1,2,3,4-tetrahydro-5-pyrimidincarboxylat",Clc1ccc(cc1)C1NC(=O)NC(C)=C1C(=O)OCC,Karthikeyan M.; Glen R.C.; Bender A. General melting point prediction based on a diverse compound dataset and artificial neural networks. J. Chem. Inf. Model.; 2005; 45(3); 581-3999
11063,2033704.0,,,11064.0,http://dx.doi.org/10.1021/ci0500132,103.0,methyl 2-acetyl-3-methyl-3H-indole-3-carboxylate,O=C(C)C1=Nc2ccccc2C1(C)C(=O)OC,Karthikeyan M.; Glen R.C.; Bender A. General melting point prediction based on a diverse compound dataset and artificial neural networks. J. Chem. Inf. Model.; 2005; 45(3); 581-2646
5066,25530.0,,,5067.0,http://www.alfa.com/en/GP100W.pgm?DSSTK=A10155,95.0,4-ethoxymethylene-2-phenyloxazolin-5-one,CCOC=C1C(=O)OC(=N1)c2ccccc2,Alfa Aesar
2849,15095.0,,,2850.0,http://www.alfa.com/en/GP100W.pgm?DSSTK=B20672,120.0,2-methoxyphenoxyacetic acid,COc1ccccc1OCC(=O)O,Alfa Aesar
23889,67937.0,,,23890.0,http://www.srcinc.com/what-we-do/product.aspx?id=133,-69.0,"cyclotetrasiloxane, 2,4,6,8-tetramethyl-",C[SiH]1O[SiH](C)O[SiH](C)O[SiH](C)O1,PHYSPROP
22731,43609.0,,,22732.0,http://www.srcinc.com/what-we-do/product.aspx?id=133,90.0,fenoxaprop-ethyl,O=C(OCC)C(C)Oc1ccc(cc1)Oc2nc3ccc(Cl)cc3o2,PHYSPROP
9986,4489706.0,,,9987.0,http://dx.doi.org/10.1021/ci0500132,147.0,(2E)-3-[5-(3-Nitrophenyl)-2-furyl]-1-phenylprop-2-en-1-one,O=[N+]([O-])c1cccc(c1)c1oc(cc1)C=CC(=O)c1ccccc1,Karthikeyan M.; Glen R.C.; Bender A. General melting point prediction based on a diverse compound dataset and artificial neural networks. J. Chem. Inf. Model.; 2005; 45(3); 581-1569
21554,5028.0,,,21555.0,http://www.srcinc.com/what-we-do/product.aspx?id=133,52.0,simfibrate,Clc2ccc(OC(C)(C)C(=O)OCCCOC(=O)C(C)(C)Oc1ccc(Cl)cc1)cc2,PHYSPROP
13051,3174.0,,,13052.0,http://dx.doi.org/10.1021/ci0500132,53.0,Ethapropazine,S1c2ccccc2N(CC(N(CC)CC)C)c2ccccc12,Karthikeyan M.; Glen R.C.; Bender A. General melting point prediction based on a diverse compound dataset and artificial neural networks. J. Chem. Inf. Model.; 2005; 45(3); 581-4634
3206,62360.0,,,3207.0,http://www.alfa.com/en/GP100W.pgm?DSSTK=L09128,150.0,"3,3'-diaminobenzophenone",c1cc(cc(c1)N)C(=O)c2cccc(c2)N,Alfa Aesar
10823,2034114.0,,,10824.0,http://dx.doi.org/10.1021/ci0500132,83.0,"2-(7-hydroxybicyclo[4.2.0]octa-1,3,5-trien-7-yl)-1-phenylethanone",O=C(CC1(O)Cc2ccccc21)c1ccccc1,Karthikeyan M.; Glen R.C.; Bender A. General melting point prediction based on a diverse compound dataset and artificial neural networks. J. Chem. Inf. Model.; 2005; 45(3); 581-2406
4976,4516368.0,,,4977.0,http://www.alfa.com/en/GP100W.pgm?DSSTK=L11406,213.0,4-chlorocinnamamide,c1cc(ccc1/C=C/C(=O)N)Cl,Alfa Aesar
21790,3808.0,,,21791.0,http://www.srcinc.com/what-we-do/product.aspx?id=133,130.5,lobeline,CN2C(CCCC2CC(O)c1ccccc1)CC(=O)c3ccccc3,PHYSPROP
17645,23911.0,,,17646.0,http://www.srcinc.com/what-we-do/product.aspx?id=133,83.0,cyanofenphos,S=P(OCC)(Oc1ccc(C#N)cc1)c2ccccc2,PHYSPROP
1821,68508.0,,,1822.0,http://www.alfa.com/en/GP100W.pgm?DSSTK=20748,74.0,"2,6-dimethylphenyl isocyanide",Cc1cccc(c1[N+]#[C-])C,Alfa Aesar
13810,331.0,,,13811.0,http://www.amazon.com/dp/B003XEQTLE,160.0,salicylic_acid,OC(=O)c1ccccc1O,Aldrich Chemical Company; Aldrich Catalog-Handbook of Fine Chemicals; Milwaukee; WI; 1984.
26474,13837582.0,,,26475.0,http://www.srcinc.com/what-we-do/product.aspx?id=133,102.5,"1,2-benzenediamine",Nc1ccccc1N,PHYSPROP
22083,2564.0,,,22084.0,http://www.srcinc.com/what-we-do/product.aspx?id=133,115.5,cephaeline,Oc4cc5CCNC(CC1CC2c3cc(OC)c(OC)cc3CCN2CC1CC)c5cc4OC,PHYSPROP
28291,35815.0,,,28292.0,http://dx.doi.org/10.1016/j.chemosphere.2013.10.095,124.0,Nadolol,CC(C)(C)NCC(COC1=CC=CC2=C1C[C@@H]([C@@H](C2)O)O)O,Abraham M.H. and Acree Jr. W.E. The solubility of liquid and solid compounds in dry octan-1-ol. Chemosphere (2013)
6305,6478.0,,,6306.0,http://www.alfa.com/en/GP100W.pgm?DSSTK=A14922,94.0,acenaphthene,c1cc2cccc3c2c(c1)CC3,Alfa Aesar
28229,190756.0,,,28230.0,http://webbook.nist.gov/cgi/cbook.cgi?ID=C5341957&Mask=4,34.5,"meso-2,3-butanediol",O[C@@H](C)[C@H](O)C,NIST Web Book
11841,2029987.0,,,11842.0,http://dx.doi.org/10.1021/ci0500132,225.0,"5-pyrimidinepropanoic acid, 1,2,3,4-tetrahydro-1,3-dimethyl-2,4-dioxo-",O=C1N(C)C=C(CCC(=O)O)C(=O)N1C,Karthikeyan M.; Glen R.C.; Bender A. General melting point prediction based on a diverse compound dataset and artificial neural networks. J. Chem. Inf. Model.; 2005; 45(3); 581-3424
25637,4475121.0,,,25638.0,http://www.srcinc.com/what-we-do/product.aspx?id=133,32.5,"9-cycloheptadecen-1-one, (z)-",O=C1CCCCCCCC=CCCCCCCC1,PHYSPROP
19841,9770.0,,,19842.0,http://www.srcinc.com/what-we-do/product.aspx?id=133,131.5,tetryl,CN([N+]([O-])=O)c1c(cc(cc1[N+]([O-])=O)[N+]([O-])=O)[N+]([O-])=O,PHYSPROP
707,221527.0,,,708.0,http://www.alfa.com/en/GP100W.pgm?DSSTK=L06015,104.0,"1,2,4-trichloro-5-iodobenzene",c1c(c(cc(c1Cl)I)Cl)Cl,Alfa Aesar
20645,7311.0,,,20646.0,http://www.srcinc.com/what-we-do/product.aspx?id=133,86.0,acetoacetanilide,O=C(Nc1ccccc1)CC(C)=O,PHYSPROP
21353,5966.0,,,21354.0,http://www.srcinc.com/what-we-do/product.aspx?id=133,62.0,naphthalene-2-carbonitrile,O=Cc1ccc2ccccc2c1,PHYSPROP
15858,7929.0,,,15859.0,http://msds.chem.ox.ac.uk/,36.7,Icosane,CCCCCCCCCCCCCCCCCCCC,academic website
2981,11427.0,,,2982.0,http://www.alfa.com/en/GP100W.pgm?DSSTK=L13599,49.0,2-nitrobenzyl chloride,c1ccc(c(c1)CCl)[N+](=O)[O-],Alfa Aesar
3850,16972.0,,,3851.0,http://www.alfa.com/en/GP100W.pgm?DSSTK=L11483,-4.0,3-chlorophenyl isocyanate,c1cc(cc(c1)Cl)N=C=O,Alfa Aesar
11927,2029729.0,,,11928.0,http://dx.doi.org/10.1021/ci0500132,205.0,"isopropyl 4-(2-furyl)-6-methyl-2-oxo-1,2,3,4-tetrahydropyrimidine-5-carboxylate",O=C1NC(C)=C(C(=O)OC(C)C)C(N1)c1occc1,Karthikeyan M.; Glen R.C.; Bender A. General melting point prediction based on a diverse compound dataset and artificial neural networks. J. Chem. Inf. Model.; 2005; 45(3); 581-3510
26368,10669845.0,,,26369.0,http://www.srcinc.com/what-we-do/product.aspx?id=133,152.5,furazabol,CC2(O)CCC1C3CCC4Cc5nonc5CC4(C)C3CCC12C,PHYSPROP
13346,8158.0,,,13347.0,http://www.questia.com/library/book/physical_properties_of_chemical_compounds_by_robert_rickert_dreisbach.jsp,-115.0,triethylamine,CCN(CC)CC,Dreisbach R. R. Physical Properties of Chemical Compounds; Vol. III; American Chemical Society; Washington; 1961.
8847,3765.0,,,8848.0,http://dx.doi.org/10.1021/ci020280x,181.0,letrozole,N#Cc1ccc(cc1)C(c2ccc(C#N)cc2)n3cncn3,Bergstrom C. A. S.; Norinder U.; Luthman K.; Artursson P. Molecular Descriptors Influencing Melting Point and Their Role in Classification of Solid Drugs. J. Chem. Inf. Comput. Sci.; (Article); 2003; 43(4); 1177-1294
2367,2058379.0,,,2368.0,http://www.alfa.com/en/GP100W.pgm?DSSTK=L19153,113.0,2-chloro-5-(trifluoromethyl)phenylacetic acid,c1cc(c(cc1C(F)(F)F)CC(=O)O)Cl,Alfa Aesar
26765,21106112.0,,,26766.0,http://www.srcinc.com/what-we-do/product.aspx?id=133,13.0,"o-aminobenzoic acid, ethyl ester",Nc1ccccc1C(=O)OCC,PHYSPROP
7290,6798.0,,,7291.0,http://www.alfa.com/en/GP100W.pgm?DSSTK=L09620,191.0,"hexahydro-1,3,5-triphenyl-1,3,5-triazine",c1ccc(cc1)N2CN(CN(C2)c3ccccc3)c4ccccc4,Alfa Aesar
27991,60494.0,,,27992.0,http://chemspider.com/60494,246.0,D-p-hydroxyphenylglycine,O=C(O)CNc1ccc(O)cc1,EPISuite-ChemSpider
28114,25404.0,,,28115.0,http://www.aapspharmscitech.org/view.asp?art=pt070126,94.0,fluorodifen,[O-][N+](=O)c2ccc(Oc1ccc(cc1[N+]([O-])=O)C(F)(F)F)cc2,Sepassi K; Yalkowsky SH; AAPS PharmSciTech; 7(1); E1-E8 (2006)
12047,2029349.0,,,12048.0,http://dx.doi.org/10.1021/ci0500132,226.0,"6-(1-methylethyl)-3-phenyl-6,7-dihydro-5H-[1,2,4]triazolo[3,4-b][1,3,5]thiadiazine",S1CN(C[nH0]2c1[nH0][nH0]c2c1ccccc1)C(C)C,Karthikeyan M.; Glen R.C.; Bender A. General melting point prediction based on a diverse compound dataset and artificial neural networks. J. Chem. Inf. Model.; 2005; 45(3); 581-3630
958,26245.0,,,959.0,http://www.alfa.com/en/GP100W.pgm?DSSTK=H27654,52.0,2-(4-biphenylyl)ethylamine,c1ccc(cc1)c2ccc(cc2)CCN,Alfa Aesar
8856,26683.0,,,8857.0,http://dx.doi.org/10.1021/ci020280x,156.0,metizoline,Cc2sc1ccccc1c2CC3=NCCN3,Bergstrom C. A. S.; Norinder U.; Luthman K.; Artursson P. Molecular Descriptors Influencing Melting Point and Their Role in Classification of Solid Drugs. J. Chem. Inf. Comput. Sci.; (Article); 2003; 43(4); 1177-1303
22061,2652.0,,,22062.0,http://www.srcinc.com/what-we-do/product.aspx?id=133,160.0,cilostazol,O=C1CCc2cc(ccc2N1)OCCCCc4nnnn4C3CCCCC3,PHYSPROP
19455,10972.0,,,19456.0,http://www.srcinc.com/what-we-do/product.aspx?id=133,155.0,m-bromobenzoic acid,OC(=O)c1cc(Br)ccc1,PHYSPROP
16023,11003.0,,,16024.0,http://msds.chem.ox.ac.uk/,53.0,N-Phenylaniline,c1ccccc1Nc2ccccc2,academic website
7160,556052.0,,,7161.0,http://www.alfa.com/en/GP100W.pgm?DSSTK=H32904,70.0,ethyl benzothiazole-2-carboxylate,CCOC(=O)c1nc2ccccc2s1,Alfa Aesar
13949,13846663.0,,,13950.0,http://www.questia.com/library/book/physical_properties_of_chemical_compounds_by_robert_rickert_dreisbach.jsp,100.0,4-tert-butylphenol,CC(C)(C)c1ccc(O)cc1,Dreisbach R. R. Physical Properties of Chemical Compounds; Vol. I; American Chemical Society; Washington; 1955.
19283,11380.0,,,19284.0,http://www.srcinc.com/what-we-do/product.aspx?id=133,170.0,"benzoic acid, 2-hydroxy-3,5-dinitro-",O=[N+]([O-])c1cc(cc(C(=O)O)c1O)[N+]([O-])=O,PHYSPROP
27070,21182086.0,,,27071.0,http://scripts.iucr.org/cgi-bin/paper?sk1466,151.85,"(2E)-2-(4-Methoxybenzylidene)-1,4-bis[(4-methylphenyl)sulfonyl]-1,2,3,4-tetrahydroquinoxaline",O=S(=O)(N3c1c(cccc1)N(/C(=C/c2ccc(OC)cc2)C3)S(=O)(=O)c4ccc(cc4)C)c5ccc(cc5)C,IUCr
11034,2033763.0,,,11035.0,http://dx.doi.org/10.1021/ci0500132,66.0,"1,2,3,7b-tetrahydro-3aH-cyclopenta[3,4]cyclobuta[1,2]benzen-3a-ol",OC12CCCC2c2ccccc21,Karthikeyan M.; Glen R.C.; Bender A. General melting point prediction based on a diverse compound dataset and artificial neural networks. J. Chem. Inf. Model.; 2005; 45(3); 581-2617
9137,10483959.0,,,9138.0,http://dx.doi.org/10.1021/ci0500132,134.0,"(5-imino-4-phenyl-4,5-dihydro-1,3,4-thiadiazol-2-yl)(thiophen-2-yl)methanone",s1cccc1C(=O)C=1SC(=N)N(N=1)c1ccccc1,Karthikeyan M.; Glen R.C.; Bender A. General melting point prediction based on a diverse compound dataset and artificial neural networks. J. Chem. Inf. Model.; 2005; 45(3); 581-718
7182,21169498.0,,,7183.0,http://www.alfa.com/en/GP100W.pgm?DSSTK=L09016,-9.0,ethyl isobutyrylacetate,CCOC(=O)CC(=O)C(C)C,Alfa Aesar
223,86635.0,,,224.0,http://www.alfa.com/en/GP100W.pgm?DSSTK=A13271,119.0,1-cyclopentene-1-carboxylic acid,C1CC=C(C1)C(=O)O,Alfa Aesar
10640,2034750.0,,,10641.0,http://dx.doi.org/10.1021/ci0500132,251.0,"3-[(E)-(4-chlorophenyl)diazenyl]-5-methyl-7-(trifluoromethyl)pyrazolo[1,5-a]pyrimidin-2-amine",Clc1ccc(N=Nc2c3N=C(C)C=C([nH0]3[nH0]c2N)C(F)(F)F)cc1,Karthikeyan M.; Glen R.C.; Bender A. General melting point prediction based on a diverse compound dataset and artificial neural networks. J. Chem. Inf. Model.; 2005; 45(3); 581-2223
16056,7984.0,,,16057.0,http://msds.chem.ox.ac.uk/,260.5,Pentaerythritol,OCC(CO)(CO)CO,academic website
14326,12690.0,,,14327.0,http://www.amazon.com/dp/B003XEQTLE,60.0,cyclododecanone,O=C1CCCCCCCCCCC1,Aldrich Chemical Company; Aldrich Catalog-Handbook of Fine Chemicals; Milwaukee; WI; 1984.
27747,6102.0,,,27748.0,http://en.wikipedia.org/wiki/Acetonitrile,-45.0,acetonitrile,CC#N,Wikipedia
3068,15174.0,,,3069.0,http://www.alfa.com/en/GP100W.pgm?DSSTK=A10394,63.0,2-thiopheneacetic acid,c1cc(sc1)CC(=O)O,Alfa Aesar
8391,4878.0,,,8392.0,http://www.alfa.com/en/GP100W.pgm?DSSTK=36248,111.0,resorcinol,c1cc(cc(c1)O)O,Alfa Aesar
13609,21106032.0,,,13610.0,http://www.questia.com/library/book/physical_properties_of_chemical_compounds_by_robert_rickert_dreisbach.jsp,-37.0,"1,4-dichlorobutane",ClCCCCCl,Dreisbach R. R. Physical Properties of Chemical Compounds; Vol. III; American Chemical Society; Washington; 1961.
6998,12213.0,,,6999.0,http://www.alfa.com/en/GP100W.pgm?DSSTK=A10387,129.0,dodecanedioic acid,C(CCCCCC(=O)O)CCCCC(=O)O,Alfa Aesar
8436,5134.0,,,8437.0,http://www.alfa.com/en/GP100W.pgm?DSSTK=L04194,236.0,sulfamerazine,Cc1ccnc(n1)NS(=O)(=O)c2ccc(cc2)N,Alfa Aesar
24340,80719.0,,,24341.0,http://www.srcinc.com/what-we-do/product.aspx?id=133,54.5,tonalid,CC(=O)c1cc2c(cc1C)C(C)(C)C(C)CC2(C)C,PHYSPROP
4011,74922.0,,,4012.0,http://www.alfa.com/en/GP100W.pgm?DSSTK=A18061,114.0,3-hydroxybenzophenone,c1ccc(cc1)C(=O)c2cccc(c2)O,Alfa Aesar
17207,58910.0,,,17208.0,http://dx.doi.org/10.1021/ci700307p,154.5,tetroxoprim,Nc2nc(N)ncc2Cc1cc(OC)c(OCCOC)c(OC)c1,Hughes LD; Palmer DS; Nigsch F and Mitchell JBO. 2008 Why are some properties more difficult to predict than others? A study of QSPR models of solubility; melting point and LogP. J. Chem. Inf. Model. 2008. 48 (1). pp 220?355
20104,8581.0,,,20105.0,http://www.srcinc.com/what-we-do/product.aspx?id=133,-30.0,triethylene glycol butyl ether,OCCOCCOCCOCCCC,PHYSPROP
822,71079.0,,,823.0,http://www.alfa.com/en/GP100W.pgm?DSSTK=A14169,-68.0,1-(3-aminopropyl)imidazole,c1cn(cn1)CCCN,Alfa Aesar
15264,21105848.0,,,15265.0,http://msds.chem.ox.ac.uk/,41.0,2-Hydroxy-3-methoxybenzaldehyde,Oc1c(cccc1OC)C=O,academic website
26942,21168838.0,,,26943.0,http://www.srcinc.com/what-we-do/product.aspx?id=133,34.2,"1,3-(bis-chloromethyl)benzene",ClCc1cccc(CCl)c1,PHYSPROP
17737,21997.0,,,17738.0,http://www.srcinc.com/what-we-do/product.aspx?id=133,25.0,4-piperidinemethanamine,NCC1CCNCC1,PHYSPROP
15212,21106123.0,,,15213.0,http://msds.chem.ox.ac.uk/,205.0,2-[(4-Hydroxyphenyl)diazenyl]benzoic acid,Oc2ccc(N=Nc1ccccc1C(=O)O)cc2,academic website
12751,71166.0,,,12752.0,http://dx.doi.org/10.1021/ci0500132,165.0,"1-bromo-2,3,4,5,6-pentamethylbenzene",Brc1c(C)c(C)c(C)c(C)c1C,Karthikeyan M.; Glen R.C.; Bender A. General melting point prediction based on a diverse compound dataset and artificial neural networks. J. Chem. Inf. Model.; 2005; 45(3); 581-4334
17070,5236.0,,,17071.0,http://www.drugbank.ca/drugs/DB01412,357.0,Theobromine,Cn1cnc2c1C(=O)NC(=O)N2C,DrugBank
26493,13839123.0,,,26494.0,http://www.srcinc.com/what-we-do/product.aspx?id=133,24.5,"2,4-dimethylphenol",Cc1ccc(O)c(C)c1,PHYSPROP
108,7031.0,,,109.0,http://www.alfa.com/en/GP100W.pgm?DSSTK=B21451,-57.0,1-methylpyrrole,Cn1cccc1,Alfa Aesar
12418,519562.0,,,12419.0,http://dx.doi.org/10.1021/ci0500132,107.0,"2-Bornanone, 3-(diphenylmethyl)-",O=C1C(C2CCC1(C)C2(C)C)C(c1ccccc1)c1ccccc1,Karthikeyan M.; Glen R.C.; Bender A. General melting point prediction based on a diverse compound dataset and artificial neural networks. J. Chem. Inf. Model.; 2005; 45(3); 581-4001
19588,10536.0,,,19589.0,http://www.srcinc.com/what-we-do/product.aspx?id=133,-79.7,di-n-butyl sulfide,CCCCSCCCC,PHYSPROP
15069,6739.0,,,15070.0,http://msds.chem.ox.ac.uk/,95.0,1-Naphthol,Oc2cccc1ccccc12,academic website
28588,6842.0,,,28589.0,http://dx.doi.org/10.1016/j.chemosphere.2013.10.095,159.0,Thianthrene,C1=CC=C2C(=C1)SC3=CC=CC=C3S2,Abraham M.H. and Acree Jr. W.E. The solubility of liquid and solid compounds in dry octan-1-ol. Chemosphere (2013)
28641,6840.0,,,28642.0,http://www.amazon.com/gp/product/0849304865/,100.5,xanthene,c1ccc2c(c1)Cc3ccccc3O2,CRC Handbook of Chemistry and Physics
26323,10469206.0,,,26324.0,http://www.srcinc.com/what-we-do/product.aspx?id=133,175.5,ferimzone,Cc2ccccc2C(C)=NNc1nc(C)cc(C)n1,PHYSPROP
13268,10054.0,,,13269.0,http://www.questia.com/library/book/physical_properties_of_chemical_compounds_by_robert_rickert_dreisbach.jsp,-25.0,2-chloro-2-methylpropane,CC(C)(C)Cl,Dreisbach R. R. Physical Properties of Chemical Compounds; Vol. III; American Chemical Society; Washington; 1961.
18885,12432.0,,,18886.0,http://www.srcinc.com/what-we-do/product.aspx?id=133,116.0,octylmalonic acid,O=C(O)C(CCCCCCCC)C(=O)O,PHYSPROP
13122,1039.0,,,13123.0,http://www.amazon.com/dp/B002IYRJWI,-98.0,dimethyl_sulfide,CSC,American Petroleum Institute. Research Project 44; Selected Values of Properties of Hydrocarbons and Related Compounds. Texas A & M University; College Station; TX; 1973.
12813,62506.0,,,12814.0,http://dx.doi.org/10.1021/ci0500132,266.0,"1,3-bis(4-tolyl)urea",O=C(Nc1ccc(C)cc1)Nc1ccc(C)cc1,Karthikeyan M.; Glen R.C.; Bender A. General melting point prediction based on a diverse compound dataset and artificial neural networks. J. Chem. Inf. Model.; 2005; 45(3); 581-4396
16522,5858.0,,,16523.0,http://www.drugbank.ca/drugs/DB00131,185.5,Adenosine monophosphate,O=P(O)(O)OC[C@H]3O[C@@H](n2cnc1c(N)ncnc12)[C@H](O)[C@@H]3O,DrugBank
28289,4644802.0,,,28290.0,http://tinyurl.com/3ldhu9h,219.0,"N,N'-[(E)-ethene-1,2-diyldibenzene-4,1-diyl]diacetamide",O=C(Nc1ccc(cc1)\C=C\c2ccc(NC(=O)C)cc2)C,Patent
6848,59885.0,,,6849.0,http://www.alfa.com/en/GP100W.pgm?DSSTK=B20234,16.0,diethyl phenylmalonate,CCOC(=O)C(c1ccccc1)C(=O)OCC,Alfa Aesar