,csid,donotuse,donotusebecause,key,link,mpC,name,smiles,source
18302,15524.0,,,18303.0,http://www.srcinc.com/what-we-do/product.aspx?id=133,140.5,"2,6-dichloronaphthalene",Clc1ccc2cc(Cl)ccc2c1,PHYSPROP
9004,2290855.0,,,9005.0,http://dx.doi.org/10.1021/ci020280x,156.0,vamicamide,CC(CC(C(N)=O)(c1ccccc1)c2ccccn2)N(C)C,Bergstrom C. A. S.; Norinder U.; Luthman K.; Artursson P. Molecular Descriptors Influencing Melting Point and Their Role in Classification of Solid Drugs. J. Chem. Inf. Comput. Sci.; (Article); 2003; 43(4); 1177-1451
18292,15593.0,,,18293.0,http://www.srcinc.com/what-we-do/product.aspx?id=133,121.0,2-phenylacetanilide,O=C(C)Nc2ccccc2c1ccccc1,PHYSPROP
7458,11750.0,,,7459.0,http://www.alfa.com/en/GP100W.pgm?DSSTK=B22917,8.0,methoxyacetic acid,COCC(=O)O,Alfa Aesar
24274,77887.0,,,24275.0,http://www.srcinc.com/what-we-do/product.aspx?id=133,122.0,sulfentrazone,CS(=O)(=O)Nc1cc(c(Cl)cc1Cl)N2N=C(C)N(C2=O)C(F)F,PHYSPROP
4025,540171.0,,,4026.0,http://www.alfa.com/en/GP100W.pgm?DSSTK=A14197,208.0,3-iodo-4-methylbenzoic acid,Cc1ccc(cc1I)C(=O)O,Alfa Aesar
11006,2033797.0,,,11007.0,http://dx.doi.org/10.1021/ci0500132,120.0,"dimethyl 7-methyl-1-oxo-1,4-dihydro-3H-isochromene-3,3-dicarboxylate",O=C1OC(Cc2ccc(C)cc12)(C(=O)OC)C(=O)OC,Karthikeyan M.; Glen R.C.; Bender A. General melting point prediction based on a diverse compound dataset and artificial neural networks. J. Chem. Inf. Model.; 2005; 45(3); 581-2589
25133,455281.0,,,25134.0,http://www.srcinc.com/what-we-do/product.aspx?id=133,222.5,17-alpha-hydroxyprogesterone,CC(=O)C2(O)CCC1C3CCC4=CC(=O)CCC4(C)C3CCC12C,PHYSPROP
14708,11038.0,,,14709.0,http://www.amazon.com/dp/B003XEQTLE,91.0,p-bromoiodobenzene,Ic1ccc(Br)cc1,Aldrich Chemical Company; Aldrich Catalog-Handbook of Fine Chemicals; Milwaukee; WI; 1984.
26548,13856352.0,,,26549.0,http://www.srcinc.com/what-we-do/product.aspx?id=133,-60.0,2-phenylethylamine,NCCc1ccccc1,PHYSPROP
6378,11297.0,,,6379.0,http://www.alfa.com/en/GP100W.pgm?DSSTK=A18542,158.0,alpha-naphthoflavone,c1ccc(cc1)c2cc(=O)c3ccc4ccccc4c3o2,Alfa Aesar
20772,7096.0,,,20773.0,http://www.srcinc.com/what-we-do/product.aspx?id=133,-56.0,"benzene, 1-chloro-3-(trifluoromethyl)-",FC(F)(F)c1cc(Cl)ccc1,PHYSPROP
22759,46715.0,,,22760.0,http://www.srcinc.com/what-we-do/product.aspx?id=133,202.0,cupreine,Oc1cc2c(cc1)nccc2C(O)C4CC3CCN4CC3C=C,PHYSPROP
15462,21106121.0,,,15463.0,http://msds.chem.ox.ac.uk/,65.0,"4-Hexylbenzene-1,3-diol",Oc1cc(O)ccc1CCCCCC,academic website
13287,13005.0,,,13288.0,http://www.amazon.com/dp/B003XEQTLE,-53.0,2-cyclohexene-1-one,O=C1C=CCCC1,Aldrich Chemical Company; Aldrich Catalog-Handbook of Fine Chemicals; Milwaukee; WI; 1984.
27839,2246.0,,,27840.0,http://dx.doi.org/10.1016/j.chemosphere.2013.10.095,176.0,Benzo[a]pyrene,C1=CC=C2C3=C4C(=CC2=C1)C=CC5=C4C(=CC=C5)C=C3,Abraham M.H. and Acree Jr. W.E. The solubility of liquid and solid compounds in dry octan-1-ol. Chemosphere (2013)
26472,13837329.0,,,26473.0,http://www.srcinc.com/what-we-do/product.aspx?id=133,5.5,dimethyl phthalate,COC(=O)c1ccccc1C(=O)OC,PHYSPROP
5299,2055660.0,,,5300.0,http://www.alfa.com/en/GP100W.pgm?DSSTK=H26124,149.0,4-methoxy-2-(trifluoromethyl)benzoic acid,COc1ccc(c(c1)C(F)(F)F)C(=O)O,Alfa Aesar
21772,3900.0,x,salt - AL,21773.0,http://www.srcinc.com/what-we-do/product.aspx?id=133,140.5,mecysteine hydrochloride,O=C(OC)C(N)CS,PHYSPROP
13388,13854136.0,,,13389.0,http://www.questia.com/library/book/physical_properties_of_chemical_compounds_by_robert_rickert_dreisbach.jsp,-24.0,o-toluidine,Cc1ccccc1N,Dreisbach R. R. Physical Properties of Chemical Compounds; Vol. I; American Chemical Society; Washington; 1955.
14583,60849.0,,,14584.0,http://www.amazon.com/dp/B002IYRJWI,61.0,cyclohexadecane,C1CCCCCCCCCCCCCCC1,American Petroleum Institute. Research Project 44; Selected Values of Properties of Hydrocarbons and Related Compounds. Texas A & M University; College Station; TX; 1973.
16564,4453.0,,,16565.0,http://www.drugbank.ca/drugs/DB00991,158.5,Oxaprozin,OC(=O)CCc1nc(c(o1)c2ccccc2)c3ccccc3,DrugBank
5791,1742.0,,,5792.0,http://www.alfa.com/en/GP100W.pgm?DSSTK=A17840,227.0,5-bromonicotinamide,c1c(cncc1Br)C(=O)N,Alfa Aesar
20194,8275.0,,,20195.0,http://www.srcinc.com/what-we-do/product.aspx?id=133,185.0,npa (naptalam),O=C(O)c1ccccc1C(=O)Nc3cccc2ccccc23,PHYSPROP
18407,14944.0,,,18408.0,http://www.srcinc.com/what-we-do/product.aspx?id=133,24.0,n-tetradecylcyclohexane,CCCCCCCCCCCCCCC1CCCCC1,PHYSPROP
28334,128103.0,,,28335.0,http://malaria.ourexperiment.org/uri/c4,167.5,OSM-S-24,Cc1c(cnn1c1ccccc1)C(=O)O,OSDD
19680,10274.0,,,19681.0,http://www.srcinc.com/what-we-do/product.aspx?id=133,118.0,tropic acid,OCC(C(=O)O)c1ccccc1,PHYSPROP
1287,4643113.0,,,1288.0,http://www.alfa.com/en/GP100W.pgm?DSSTK=B20105,200.0,"2,3-difluorocinnamic acid",c1cc(c(c(c1)F)F)/C=C/C(=O)O,Alfa Aesar
22063,2646.0,,,22064.0,http://www.srcinc.com/what-we-do/product.aspx?id=133,182.5,cyclacillin,OC(=O)C2N3C(=O)C(NC(=O)C1(N)CCCCC1)C3SC2(C)C,PHYSPROP
21206,6261.0,,,21207.0,http://www.srcinc.com/what-we-do/product.aspx?id=133,-20.0,butyl citrate,OC(CC(=O)OCCCC)(CC(=O)OCCCC)C(=O)OCCCC,PHYSPROP
2308,643017.0,,,2309.0,http://www.alfa.com/en/GP100W.pgm?DSSTK=B25319,194.0,2-chloro-4-(methylsulfonyl)benzoic acid,CS(=O)(=O)c1ccc(c(c1)Cl)C(=O)O,Alfa Aesar
23665,64625.0,,,23666.0,http://www.srcinc.com/what-we-do/product.aspx?id=133,36.0,heptadecanal,CCCCCCCCCCCCCCCCC=O,PHYSPROP
24301,78021.0,,,24302.0,http://www.srcinc.com/what-we-do/product.aspx?id=133,107.0,mannitol hexanitrate,O=[N+]([O-])OC(CO[N+](=O)[O-])C(O[N+]([O-])=O)C(O[N+]([O-])=O)C(CO[N+]([O-])=O)O[N+]([O-])=O,PHYSPROP
20305,8001.0,,,20306.0,http://www.srcinc.com/what-we-do/product.aspx?id=133,-156.5,hexafluoropropene,F/C(F)=C(/F)C(F)(F)F,PHYSPROP
6774,16896.0,,,6775.0,http://www.alfa.com/en/GP100W.pgm?DSSTK=A15940,55.0,diacetone acrylamide,CC(=O)CC(C)(C)NC(=O)C=C,Alfa Aesar
26489,13839105.0,,,26490.0,http://www.srcinc.com/what-we-do/product.aspx?id=133,60.8,"3,4-dimethylphenol",Cc1cc(O)ccc1C,PHYSPROP
873,53708.0,,,874.0,http://www.alfa.com/en/GP100W.pgm?DSSTK=L08299,112.0,(phenylsulfonyl)acetic acid,c1ccc(cc1)S(=O)(=O)CC(=O)O,Alfa Aesar
13237,10464.0,,,13238.0,http://www.amazon.com/dp/B003XEQTLE,116.0,butyramide,CCCC(N)=O,Aldrich Chemical Company; Aldrich Catalog-Handbook of Fine Chemicals; Milwaukee; WI; 1984.
22665,37749.0,,,22666.0,http://www.srcinc.com/what-we-do/product.aspx?id=133,133.5,triadimenol (diastereoisomer b),CC(C)(C)C(O)C(Oc1ccc(Cl)cc1)n2cncn2,PHYSPROP
24709,119988.0,,,24710.0,http://www.srcinc.com/what-we-do/product.aspx?id=133,-87.0,"sulfur, pentafluoro(trifluoromethyl)-, (oc-6-21)",FC(F)(F)S(F)(F)(F)(F)F,PHYSPROP
22443,434.0,,,22444.0,http://www.srcinc.com/what-we-do/product.aspx?id=133,158.0,m-chlorobenzoic acid,OC(=O)c1cc(Cl)ccc1,PHYSPROP
8882,4676.0,,,8883.0,http://dx.doi.org/10.1021/ci020280x,106.0,pipobroman,BrCCC(=O)N1CCN(CC1)C(=O)CCBr,Bergstrom C. A. S.; Norinder U.; Luthman K.; Artursson P. Molecular Descriptors Influencing Melting Point and Their Role in Classification of Solid Drugs. J. Chem. Inf. Comput. Sci.; (Article); 2003; 43(4); 1177-1329
2465,305926.0,,,2466.0,http://www.alfa.com/en/GP100W.pgm?DSSTK=B21783,75.0,2-chlorobutyramide,CCC(C(=O)N)Cl,Alfa Aesar
14896,6827.0,,,14897.0,http://msds.chem.ox.ac.uk/,4.0,"1,1'-Bi(cyclohexyl)",C1CC(CCC1)C2CCCCC2,academic website
6054,2876051.0,,,6055.0,http://www.alfa.com/en/GP100W.pgm?DSSTK=H27407,196.0,"6-acetyl-2h-1,4-benzoxazin-3(4h)-one",CC(=O)c1ccc2c(c1)NC(=O)CO2,Alfa Aesar
27152,101130.0,,,27153.0,http://scripts.iucr.org/cgi-bin/paper?tk6055,113.85,(2-Bromophenyl)(diphenyl)phosphine,Brc3ccccc3P(c1ccccc1)c2ccccc2,IUCr
312,2017958.0,,,313.0,http://www.alfa.com/en/GP100W.pgm?DSSTK=A18670,56.0,"1-bromo-2,5-difluoro-4-nitrobenzene",c1c(c(cc(c1F)Br)F)[N+](=O)[O-],Alfa Aesar
21666,4518.0,,,21667.0,http://www.srcinc.com/what-we-do/product.aspx?id=133,147.5,papaverine,COc1ccc(cc1OC)Cc3nccc2cc(OC)c(cc23)OC,PHYSPROP
18022,17732.0,,,18023.0,http://www.srcinc.com/what-we-do/product.aspx?id=133,256.5,1-methylchyrsene,Cc4cccc2c4ccc1c3ccccc3ccc12,PHYSPROP
13247,259.0,,,13248.0,http://www.amazon.com/dp/B002IYRJWI,-5.0,butanoic_acid,CCCC(=O)O,American Petroleum Institute. Research Project 44; Selected Values of Properties of Hydrocarbons and Related Compounds. Texas A & M University; College Station; TX; 1973.
27873,2385.0,,,27874.0,http://chemspider.com/2385,166.5,butabarbital,O=C1NC(=O)NC(=O)C1(C(C)CC)CC,EPISuite-ChemSpider
18217,16058.0,,,18218.0,http://www.srcinc.com/what-we-do/product.aspx?id=133,-37.0,ut-632,O=C(OCC1CC2OC2CC1)C3CCC4OC4C3,PHYSPROP
26092,10440514.0,,,26093.0,http://www.srcinc.com/what-we-do/product.aspx?id=133,194.0,"2-naphthalenecarboxamide, n-butyl-6,7-dihydroxy-",CCCCNC(=O)c1cc2cc(O)c(O)cc2cc1,PHYSPROP
20508,7634.0,,,20509.0,http://www.srcinc.com/what-we-do/product.aspx?id=133,119.0,succinic anhydride,O=C1CCC(=O)O1,PHYSPROP
9918,4633488.0,,,9919.0,http://dx.doi.org/10.1021/ci0500132,300.0,"5-[(4-Chlorophenyl)hydrazono]-2-thioxodihydropyrimidine-4,6(1H,5H)-dione",Clc1ccc(NN=C2C(=O)NC(=S)NC2=O)cc1,Karthikeyan M.; Glen R.C.; Bender A. General melting point prediction based on a diverse compound dataset and artificial neural networks. J. Chem. Inf. Model.; 2005; 45(3); 581-1501
19787,9911.0,,,19788.0,http://www.srcinc.com/what-we-do/product.aspx?id=133,72.0,"2,4,5-trimethylphenol",Cc1cc(C)c(O)cc1C,PHYSPROP
5739,30620.0,,,5740.0,http://www.alfa.com/en/GP100W.pgm?DSSTK=A12218,160.0,5-bromo-2-chlorobenzoic acid,c1cc(c(cc1Br)C(=O)O)Cl,Alfa Aesar
1475,215056.0,,,1476.0,http://www.alfa.com/en/GP100W.pgm?DSSTK=L10869,47.0,"2,4-dichlorophenoxyacetonitrile",c1cc(c(cc1Cl)Cl)OCC#N,Alfa Aesar
22053,2689.0,,,22054.0,http://www.srcinc.com/what-we-do/product.aspx?id=133,196.25,clobetasol-17-propionate,ClCC(=O)C4(OC(=O)CC)C(C)CC3C2CCC1=CC(=O)C=CC1(C)C2(F)C(O)CC34C,PHYSPROP
20489,7674.0,,,20490.0,http://www.srcinc.com/what-we-do/product.aspx?id=133,-126.6,1-methylcyclohexane,CC1CCCCC1,PHYSPROP
16565,40204.0,,,16566.0,http://www.drugbank.ca/drugs/DB01329,169.0,Cefoperazone,O=C1C(=O)N(CC)CCN1C(=O)NC(c2ccc(O)cc2)C(=O)N[C@@H]5C(=O)N4C(=C(CSc3nnnn3C)CS[C@@H]45)C(=O)O,DrugBank
1829,59976.0,,,1830.0,http://www.alfa.com/en/GP100W.pgm?DSSTK=B21952,91.0,"2,6-di-tert-butyl-4-(dimethylaminomethyl)phenol",CC(C)(C)c1cc(cc(c1O)C(C)(C)C)CN(C)C,Alfa Aesar
7749,637873.0,,,7750.0,http://www.alfa.com/en/GP100W.pgm?DSSTK=H32740,167.0,"N-(2,3,5,6-tetramethylphenylsulfonyl)glycine",Cc1cc(c(c(c1C)S(=O)(=O)NCC(=O)O)C)C,Alfa Aesar
2001,210698.0,,,2002.0,http://www.alfa.com/en/GP100W.pgm?DSSTK=B22705,219.0,2-amino-5-iodopyrimidine,c1c(cnc(n1)N)I,Alfa Aesar
3288,9109.0,,,3289.0,http://www.alfa.com/en/GP100W.pgm?DSSTK=A15098,-12.0,"3,4-dichlorobenzotrifluoride",c1cc(c(cc1C(F)(F)F)Cl)Cl,Alfa Aesar
21228,6221.0,,,21229.0,http://www.srcinc.com/what-we-do/product.aspx?id=133,141.0,aprobarbital,O=C1NC(=O)NC(=O)C1(CC=C)C(C)C,PHYSPROP
19959,9215.0,,,19960.0,http://www.srcinc.com/what-we-do/product.aspx?id=133,-35.0,benzyl fluoride,FCc1ccccc1,PHYSPROP
4975,4526154.0,,,4976.0,http://www.alfa.com/en/GP100W.pgm?DSSTK=A15978,115.0,4-chlorochalcone,c1ccc(cc1)C(=O)/C=C/c2ccc(cc2)Cl,Alfa Aesar
23727,66024.0,,,23728.0,http://www.srcinc.com/what-we-do/product.aspx?id=133,142.0,nicosulfuron,O=S(=O)(NC(=O)Nc1nc(OC)cc(OC)n1)c2ncccc2C(=O)N(C)C,PHYSPROP
26878,21111804.0,,,26879.0,http://www.srcinc.com/what-we-do/product.aspx?id=133,48.5,"benzene, 1,2,3-trimethoxy-",COc1c(cccc1OC)OC,PHYSPROP
26734,21105932.0,,,26735.0,http://www.srcinc.com/what-we-do/product.aspx?id=133,28.0,"benzenemethanol, 4-(1-methylethyl)-",OCc1ccc(cc1)C(C)C,PHYSPROP
18205,16096.0,,,18206.0,http://www.srcinc.com/what-we-do/product.aspx?id=133,90.5,"2,3,5,6-tetrachlorpyridine",Clc1cc(Cl)c(Cl)nc1Cl,PHYSPROP
19340,11263.0,,,19341.0,http://www.srcinc.com/what-we-do/product.aspx?id=133,114.0,ethylmalonic acid,O=C(O)C(CC)C(=O)O,PHYSPROP
12830,60100.0,,,12831.0,http://dx.doi.org/10.1021/ci0500132,105.0,Lintrin,O=C(Oc1ccc2ccccc2c1)c1ccccc1,Karthikeyan M.; Glen R.C.; Bender A. General melting point prediction based on a diverse compound dataset and artificial neural networks. J. Chem. Inf. Model.; 2005; 45(3); 581-4413
1219,69057.0,,,1220.0,http://www.alfa.com/en/GP100W.pgm?DSSTK=A11761,27.0,"2,3,5-tribromothiophene",c1c(c(sc1Br)Br)Br,Alfa Aesar
28304,30797.0,,,28305.0,http://dx.doi.org/10.1016/j.chemosphere.2013.10.095,87.0,Naproxol,OCC(c1ccc2c(c1)ccc(OC)c2)C,Abraham M.H. and Acree Jr. W.E. The solubility of liquid and solid compounds in dry octan-1-ol. Chemosphere (2013)
27939,8761.0,,,27940.0,http://dx.doi.org/10.1080/10629360701430124,440.0,coronene,c1cc2ccc3ccc4ccc5ccc6ccc1c7c2c3c4c5c67,RAEVSKY OA; PERLOVICH GL and SCHAPER K-J. Physicochemical properties/descriptors governing the solubility and partitioning of chemicals in water-solvent-gas systems. Part 2. Solubility in 1-octanol. SAR and QSAR in Environmental Research Vol. 18 Nos. 5–6 July–September 2007 543–578
19304,11349.0,,,19305.0,http://www.srcinc.com/what-we-do/product.aspx?id=133,87.5,"1,2,3-tribromobenzene",Brc1cccc(Br)c1Br,PHYSPROP
788,76469.0,,,789.0,http://www.alfa.com/en/GP100W.pgm?DSSTK=B20532,88.0,1-(cyanoacetyl)piperidine,C1CCN(CC1)C(=O)CC#N,Alfa Aesar
25865,7838476.0,,,25866.0,http://www.srcinc.com/what-we-do/product.aspx?id=133,116.8,"2-butanone, (2,4-dinitrophenyl)hydrazone",[O-][N+](=O)c1ccc(NN=C(/C)CC)c(c1)[N+]([O-])=O,PHYSPROP
20586,7472.0,,,20587.0,http://www.srcinc.com/what-we-do/product.aspx?id=133,-98.9,s-butylacetate,CC(=O)OC(C)CC,PHYSPROP
23140,60960.0,,,23141.0,http://www.srcinc.com/what-we-do/product.aspx?id=133,-70.0,"1,2-dicl-3,3,4,4,5,5,6,6-octafluoro-cyclohexane",FC1(F)C(F)(F)C(Cl)=C(Cl)C(F)(F)C1(F)F,PHYSPROP
3358,2083156.0,,,3359.0,http://www.alfa.com/en/GP100W.pgm?DSSTK=B24371,123.0,"3,4-dimethylthiophene-2,5-dicarbonitrile",Cc1c(c(sc1C#N)C#N)C,Alfa Aesar
18327,15466.0,,,18328.0,http://www.srcinc.com/what-we-do/product.aspx?id=133,-24.0,diethyl pimelate,O=C(CCCCCC(=O)OCC)OCC,PHYSPROP
19725,10113.0,,,19726.0,http://www.srcinc.com/what-we-do/product.aspx?id=133,-133.7,2-methyl-2-butene,CC=C(/C)C,PHYSPROP
18126,16607.0,,,18127.0,http://www.srcinc.com/what-we-do/product.aspx?id=133,103.0,"3,5-bis(tert-butyl)phenol methylcarbamate",O=C(Oc1cc(cc(c1)C(C)(C)C)C(C)(C)C)NC,PHYSPROP
23801,67009.0,,,23802.0,http://www.srcinc.com/what-we-do/product.aspx?id=133,133.0,"1,2,3,6,7,8-hexahydropyrene",C1CCc2ccc3CCCc4ccc1c2c34,PHYSPROP
25892,7985670.0,,,25893.0,http://www.srcinc.com/what-we-do/product.aspx?id=133,143.0,tralomethrin,BrC(Br)(Br)C(Br)C3C(C(=O)OC(C#N)c2cccc(Oc1ccccc1)c2)C3(C)C,PHYSPROP
20519,7619.0,,,20520.0,http://www.srcinc.com/what-we-do/product.aspx?id=133,-119.9,"2,4-dimethylpentane",CC(C)CC(C)C,PHYSPROP
13202,558930.0,,,13203.0,http://www.amazon.com/dp/B002IYRJWI,-141.0,cis-2-hexene,CCC/C=CC,American Petroleum Institute. Research Project 44; Selected Values of Properties of Hydrocarbons and Related Compounds. Texas A & M University; College Station; TX; 1973.
22635,36542.0,,,22636.0,http://www.srcinc.com/what-we-do/product.aspx?id=133,116.0,hexazinone,CN(C)C2=NC(=O)N(C1CCCCC1)C(=O)N2C,PHYSPROP
20814,7002.0,,,20815.0,http://www.srcinc.com/what-we-do/product.aspx?id=133,117.5,dilactide,CC1OC(=O)C(C)OC1=O,PHYSPROP
25669,4510162.0,,,25670.0,http://www.srcinc.com/what-we-do/product.aspx?id=133,194.5,fumagillin,CC1(OC1CC=C(C)C)C3C(OC)C(OC(=O)C=CC=CC=CC=CC(=O)O)CCC23CO2,PHYSPROP
22257,1278.0,,,22258.0,http://www.srcinc.com/what-we-do/product.aspx?id=133,117.0,o-phenanthroline,c1ccnc3c1ccc2cccnc23,PHYSPROP
9185,10482803.0,,,9186.0,http://dx.doi.org/10.1021/ci0500132,176.0,"(E,Z)-(2-nitrobenzene-1,4-diyl)bis(N-hydroxymethanimine)",O=[N+]([O-])c1cc(ccc1C=NO)C=NO,Karthikeyan M.; Glen R.C.; Bender A. General melting point prediction based on a diverse compound dataset and artificial neural networks. J. Chem. Inf. Model.; 2005; 45(3); 581-768
16513,388690.0,,,16514.0,http://www.drugbank.ca/drugs/DB02280,119.0,(R)-Mandelic Acid,O[C@H](C(=O)O)c1ccccc1,DrugBank
5465,86963.0,,,5466.0,http://www.alfa.com/en/GP100W.pgm?DSSTK=A15525,128.0,4-nitrobenzaldoxime,c1cc(ccc1C=NO)[N+](=O)[O-],Alfa Aesar
20443,7749.0,,,20444.0,http://www.srcinc.com/what-we-do/product.aspx?id=133,30.0,"peroxide, diacetyl",CC(=O)OOC(C)=O,PHYSPROP
12043,2029353.0,,,12044.0,http://dx.doi.org/10.1021/ci0500132,202.0,"6-(2-methylphenyl)-3-pyridin-3-yl-6,7-dihydro-5H-[1,2,4]triazolo[3,4-b][1,3,5]thiadiazine",S1CN(C[nH0]2c1[nH0][nH0]c2c1c[nH0]ccc1)c1ccccc1C,Karthikeyan M.; Glen R.C.; Bender A. General melting point prediction based on a diverse compound dataset and artificial neural networks. J. Chem. Inf. Model.; 2005; 45(3); 581-3626
19660,10340.0,,,19661.0,http://www.srcinc.com/what-we-do/product.aspx?id=133,-87.5,2-methylfuran,Cc1ccco1,PHYSPROP
20187,8301.0,,,20188.0,http://www.srcinc.com/what-we-do/product.aspx?id=133,231.5,pentachlorothiophenol,Clc1c(S)c(Cl)c(Cl)c(Cl)c1Cl,PHYSPROP
13419,764.0,,,13420.0,http://www.amazon.com/dp/B003XEQTLE,175.0,hydroquinone,Oc1ccc(O)cc1,Aldrich Chemical Company; Aldrich Catalog-Handbook of Fine Chemicals; Milwaukee; WI; 1984.
21545,5108.0,,,21546.0,http://www.srcinc.com/what-we-do/product.aspx?id=133,115.0,streptozocin,OC(C(C=O)NC(=O)N(C)N=O)C(O)C(O)CO,PHYSPROP
14508,63022.0,,,14509.0,http://www.amazon.com/dp/B002IYRJWI,10.0,1-pentadecyne,C#CCCCCCCCCCCCCC,American Petroleum Institute. Research Project 44; Selected Values of Properties of Hydrocarbons and Related Compounds. Texas A & M University; College Station; TX; 1973.
12281,708711.0,,,12282.0,http://dx.doi.org/10.1021/ci0500132,175.0,N-(2-ethylphenyl)-1-naphthamide,O=C(Nc1ccccc1CC)c1cccc2ccccc21,Karthikeyan M.; Glen R.C.; Bender A. General melting point prediction based on a diverse compound dataset and artificial neural networks. J. Chem. Inf. Model.; 2005; 45(3); 581-3864
1984,194763.0,,,1985.0,http://www.alfa.com/en/GP100W.pgm?DSSTK=B22484,193.0,2-amino-5-chloro-3-nitropyridine,c1c(cnc(c1[N+](=O)[O-])N)Cl,Alfa Aesar
457,8215.0,,,458.0,http://www.alfa.com/en/GP100W.pgm?DSSTK=A10958,122.0,"1,4-naphthoquinone",c1ccc2c(c1)C(=O)C=CC2=O,Alfa Aesar
12832,59668.0,,,12833.0,http://dx.doi.org/10.1021/ci0500132,54.0,Dimethyl cyanimidodithiocarbonate,S(C)C(SC)=NC#N,Karthikeyan M.; Glen R.C.; Bender A. General melting point prediction based on a diverse compound dataset and artificial neural networks. J. Chem. Inf. Model.; 2005; 45(3); 581-4415
17881,19606.0,,,17882.0,http://www.srcinc.com/what-we-do/product.aspx?id=133,34.0,2-tetradecanol,CC(O)CCCCCCCCCCCC,PHYSPROP
2419,110060.0,,,2420.0,http://www.alfa.com/en/GP100W.pgm?DSSTK=A10460,122.0,2-chloro-6-fluorophenylacetic acid,c1cc(c(c(c1)Cl)CC(=O)O)F,Alfa Aesar
2922,11549.0,,,2923.0,http://www.alfa.com/en/GP100W.pgm?DSSTK=A11823,76.0,2-methylglutaric acid,CC(CCC(=O)O)C(=O)O,Alfa Aesar
21602,4760.0,,,21603.0,http://www.srcinc.com/what-we-do/product.aspx?id=133,119.0,prometryne,CSc1nc(NC(C)C)nc(NC(C)C)n1,PHYSPROP
11125,2033266.0,,,11126.0,http://dx.doi.org/10.1021/ci0500132,153.0,1-(benzyloxy)-2-methoxy-4-(nitromethyl)benzene,O=[N+]([O-])Cc1ccc(OCc2ccccc2)c(OC)c1,Karthikeyan M.; Glen R.C.; Bender A. General melting point prediction based on a diverse compound dataset and artificial neural networks. J. Chem. Inf. Model.; 2005; 45(3); 581-2708
4507,2019023.0,,,4508.0,http://www.alfa.com/en/GP100W.pgm?DSSTK=H26933,139.0,4'-acetamido-2'-methylacetophenone,Cc1cc(ccc1C(=O)C)NC(=O)C,Alfa Aesar
13496,18801.0,,,13497.0,http://www.amazon.com/dp/B003XEQTLE,56.0,6-amino-1-hexanol,NCCCCCCO,Aldrich Chemical Company; Aldrich Catalog-Handbook of Fine Chemicals; Milwaukee; WI; 1984.
10881,2033986.0,,,10882.0,http://dx.doi.org/10.1021/ci0500132,220.0,"tetramethyl anthracene-2,3,6,7-tetracarboxylate",O=C(OC)c1cc2cc3cc(c(cc3cc2cc1C(=O)OC)C(=O)OC)C(=O)OC,Karthikeyan M.; Glen R.C.; Bender A. General melting point prediction based on a diverse compound dataset and artificial neural networks. J. Chem. Inf. Model.; 2005; 45(3); 581-2464
27407,11121.0,,,27408.0,http://webbook.nist.gov/cgi/cbook.cgi?ID=C592767&Units=SI&Mask=7,-120.15,1-heptene,C=CCCCCC,NIST Web Book