,csid,donotuse,donotusebecause,key,link,mpC,name,smiles,source
13996,11429.0,,,13997.0,http://www.amazon.com/dp/B003XEQTLE,72.0,2-nitrobenzyl_alcohol,O=[N+]([O-])c1ccccc1CO,Aldrich Chemical Company; Aldrich Catalog-Handbook of Fine Chemicals; Milwaukee; WI; 1984.
15291,21106133.0,,,15292.0,http://msds.chem.ox.ac.uk/,2.6,2-Methylbut-3-yn-2-ol,C#CC(C)(C)O,academic website
13635,7849.0,,,13636.0,http://www.amazon.com/dp/B002IYRJWI,-54.0,nonane,CCCCCCCCC,American Petroleum Institute. Research Project 44; Selected Values of Properties of Hydrocarbons and Related Compounds. Texas A & M University; College Station; TX; 1973.
23714,65701.0,,,23715.0,http://www.srcinc.com/what-we-do/product.aspx?id=133,86.0,1-(4-iodo-phenyl)-ethanone,O=C(C)c1ccc(I)cc1,PHYSPROP
2344,2053749.0,,,2345.0,http://www.alfa.com/en/GP100W.pgm?DSSTK=H26917,202.0,2-chloro-4-methoxybenzeneboronic acid,B(c1ccc(cc1Cl)OC)(O)O,Alfa Aesar
10473,2035580.0,,,10474.0,http://dx.doi.org/10.1021/ci0500132,211.0,"2-(4-methoxyphenyl)-6-(trifluoromethyl)-1,2-dihydro[1,2,4]triazolo[4,3-d][1,3,4,2]thiadiazaphosphole 2-sulfide",[S-][P+]1(Sc2[nH0][nH0]c([nH0]2N1)C(F)(F)F)c1ccc(OC)cc1,Karthikeyan M.; Glen R.C.; Bender A. General melting point prediction based on a diverse compound dataset and artificial neural networks. J. Chem. Inf. Model.; 2005; 45(3); 581-2056
23955,69178.0,,,23956.0,http://www.srcinc.com/what-we-do/product.aspx?id=133,342.0,"2,5-furandicarboxylic acid",OC(=O)c1ccc(o1)C(O)=O,PHYSPROP
4900,2007099.0,,,4901.0,http://www.alfa.com/en/GP100W.pgm?DSSTK=41365,47.0,4-chloro-3-fluorobenzaldehyde,c1cc(c(cc1C=O)F)Cl,Alfa Aesar
5702,2015760.0,,,5703.0,http://www.alfa.com/en/GP100W.pgm?DSSTK=H26999,242.0,5-amino-2-mercaptobenzimidazole,c1cc2c(cc1N)nc([nH]2)S,Alfa Aesar
11349,2031939.0,,,11350.0,http://dx.doi.org/10.1021/ci0500132,141.0,"4-[bromo(phenyl)methyl]-1,8,8-trimethyl-3-oxabicyclo[3.2.1]octan-2-one",BrC(c1ccccc1)C1OC(=O)C2(C)CCC1C2(C)C,Karthikeyan M.; Glen R.C.; Bender A. General melting point prediction based on a diverse compound dataset and artificial neural networks. J. Chem. Inf. Model.; 2005; 45(3); 581-2932
2281,512734.0,,,2282.0,http://www.alfa.com/en/GP100W.pgm?DSSTK=L08303,39.0,2-chloro-3-(trifluoromethyl)pyridine,c1cc(c(nc1)Cl)C(F)(F)F,Alfa Aesar
2153,2037012.0,,,2154.0,http://www.alfa.com/en/GP100W.pgm?DSSTK=H31777,72.0,2-bromo-5-(trifluoromethyl)benzyl alcohol,c1cc(c(cc1C(F)(F)F)CO)Br,Alfa Aesar
16767,11540.0,,,16768.0,http://www.drugbank.ca/drugs/DB06151,109.5,Acetylcysteine,CC(=O)N[C@@H](CS)C(O)=O,DrugBank
3586,526454.0,,,3587.0,http://www.alfa.com/en/GP100W.pgm?DSSTK=B21769,178.0,"3-amino-2,5,6-trifluorobenzoic acid",c1c(c(c(c(c1F)F)C(=O)O)F)N,Alfa Aesar
22748,46142.0,,,22749.0,http://www.srcinc.com/what-we-do/product.aspx?id=133,5.0,fluazifop-p-butyl,O=C(OCCCC)C(C)Oc1ccc(cc1)Oc2ccc(cn2)C(F)(F)F,PHYSPROP
25755,4521337.0,,,25756.0,http://www.srcinc.com/what-we-do/product.aspx?id=133,215.0,piperic acid,O=C(O)/C=C/C=C/c1ccc2OCOc2c1,PHYSPROP
22961,59185.0,,,22962.0,http://www.srcinc.com/what-we-do/product.aspx?id=133,73.5,terofenamate,Clc2ccc(C)c(Cl)c2Nc1ccccc1C(=O)OCOCC,PHYSPROP
27432,0.0,,,27433.0,http://www.beilstein-journals.org/bjoc/single/articleFullText.htm?publicId=1860-5397-8-29&vt=f&bpn=home,50.0,"1,2-Bis(tert-butoxycarbonyl)-1-(3,4,5-tridodecylsulfanylphenyl)hydrazine",C(C)(C)(C)OC(=O)N(NC(=O)OC(C)(C)C)C1=CC(=C(C(=C1)SCCCCCCCCCCCC)SCCCCCCCCCCCC)SCCCCCCCCCCCC,Beilstein Journal of Organic Chemistry
20642,7314.0,,,20643.0,http://www.srcinc.com/what-we-do/product.aspx?id=133,239.0,"diphenylurea, sym",O=C(Nc1ccccc1)Nc2ccccc2,PHYSPROP
1835,13842613.0,,,1836.0,http://www.alfa.com/en/GP100W.pgm?DSSTK=A10478,-7.0,"2,6-lutidine",Cc1cccc(n1)C,Alfa Aesar
13908,7112.0,,,13909.0,http://www.amazon.com/dp/B002IYRJWI,-53.0,1-methyl-4-tert-butylbenzene,Cc1ccc(cc1)C(C)(C)C,American Petroleum Institute. Research Project 44; Selected Values of Properties of Hydrocarbons and Related Compounds. Texas A & M University; College Station; TX; 1973.
25053,380506.0,,,25054.0,http://www.srcinc.com/what-we-do/product.aspx?id=133,273.0,normorphine,Oc1ccc2CC5NCCC43C5C=CC(O)C4Oc1c23,PHYSPROP
11067,2033696.0,,,11068.0,http://dx.doi.org/10.1021/ci0500132,169.0,"methyl 3,3-dimethyl-2,3-dihydro-1H-indole-2-carboxylate",O=C(OC)C1Nc2ccccc2C1(C)C,Karthikeyan M.; Glen R.C.; Bender A. General melting point prediction based on a diverse compound dataset and artificial neural networks. J. Chem. Inf. Model.; 2005; 45(3); 581-2650
22662,37555.0,,,22663.0,http://www.srcinc.com/what-we-do/product.aspx?id=133,-61.0,"2-heptanol, 5-methyl-",CC(CC)CCC(C)O,PHYSPROP
26615,13869661.0,,,26616.0,http://www.srcinc.com/what-we-do/product.aspx?id=133,82.5,"2,5-dimethoxyaniline",Nc1cc(ccc1OC)OC,PHYSPROP
26335,10469330.0,,,26336.0,http://www.srcinc.com/what-we-do/product.aspx?id=133,102.0,metobenzuron,CN(OC)C(=O)Nc1ccc(cc1)Oc2ccc3c(c2)OC(C)(CC3(C)C)OC,PHYSPROP
26282,10468507.0,,,26283.0,http://www.srcinc.com/what-we-do/product.aspx?id=133,204.0,aconitine,CC(=O)O[C@]25[C@@H]6C1[N@@](CC)CC7(COC)[C@H](O)CC(OC)[C@@]1(C4C[C@](O)(C(OC)C2O)[C@H](OC(=O)c3ccccc3)C45)C7[C@H]6OC,PHYSPROP
16620,3252.0,,,16621.0,http://www.drugbank.ca/drugs/DB01567,296.0,Fludiazepam,Fc3ccccc3C2=NCC(=O)N(C)c1ccc(Cl)cc12,DrugBank
4267,642990.0,,,4268.0,http://www.alfa.com/en/GP100W.pgm?DSSTK=A11067,130.0,4-(4-nitrobenzyloxy)benzaldehyde,c1cc(ccc1COc2ccc(cc2)C=O)[N+](=O)[O-],Alfa Aesar
6634,5977.0,,,6635.0,http://www.alfa.com/en/GP100W.pgm?DSSTK=L13200,-63.0,chloroform,C(Cl)(Cl)Cl,Alfa Aesar
3450,16499345.0,,,3451.0,http://www.alfa.com/en/GP100W.pgm?DSSTK=H26526,41.0,"3,5-difluoro-4-methoxybenzyl bromide",COc1c(cc(cc1F)CBr)F,Alfa Aesar
15070,63334.0,,,15071.0,http://msds.chem.ox.ac.uk/,26.0,1-Naphthoyl chloride,ClC(=O)c2cccc1ccccc12,academic website
24383,82776.0,,,24384.0,http://www.srcinc.com/what-we-do/product.aspx?id=133,84.0,"1-[[2-(2,4-dichlorophenyl)-4-ethyl-1,3-dioxolan-",Clc1ccc(c(Cl)c1)C3(Cn2ncnc2)OCC(CC)O3,PHYSPROP
28537,5132.0,,,28538.0,http://dx.doi.org/10.1016/j.chemosphere.2013.10.095,204.5,Sulfadimethoxine,COC1=NC(=NC(=C1)NS(=O)(=O)C2=CC=C(C=C2)N)OC,Abraham M.H. and Acree Jr. W.E. The solubility of liquid and solid compounds in dry octan-1-ol. Chemosphere (2013)
17335,5136.0,,,17336.0,http://dx.doi.org/10.1021/ci700307p,176.0,sulfamethazine,O=S(=O)(Nc1nc(C)cc(C)n1)c2ccc(N)cc2,Hughes LD; Palmer DS; Nigsch F and Mitchell JBO. 2008 Why are some properties more difficult to predict than others? A study of QSPR models of solubility; melting point and LogP. J. Chem. Inf. Model. 2008. 48 (1). pp 220?483
8134,28975.0,,,8135.0,http://www.alfa.com/en/GP100W.pgm?DSSTK=B22131,-30.0,N-phenylethanolamine,c1ccc(cc1)NCCO,Alfa Aesar
14906,13866746.0,,,14907.0,http://msds.chem.ox.ac.uk/,-48.0,"1,2,3,4,5-Pentafluorobenzene",Fc1cc(F)c(F)c(F)c1F,academic website
24815,148477.0,,,24816.0,http://www.srcinc.com/what-we-do/product.aspx?id=133,-18.0,n-hexylnaphthalene,CCCCCCc2cccc1ccccc12,PHYSPROP
4096,2060089.0,,,4097.0,http://www.alfa.com/en/GP100W.pgm?DSSTK=A19620,149.0,3-methylbenzo[b]thiophene-2-acetic acid,Cc1c2ccccc2sc1CC(=O)O,Alfa Aesar
23852,67594.0,,,23853.0,http://www.srcinc.com/what-we-do/product.aspx?id=133,113.0,"phosphine oxide, diphenylmethyl-",CP(=O)(c1ccccc1)c2ccccc2,PHYSPROP
14268,72046.0,,,14269.0,http://de.wikipedia.org/wiki/Beilsteins_Handbuch_der_Organischen_Chemie,138.0,o-acetoxybenzamide,O=C(C)Oc1ccccc1C(N)=O,Beilstein F. K.; Beilsteins Handbuch der Organischen Chemie. Springer; Berlin; 1972.
12452,480084.0,,,12453.0,http://dx.doi.org/10.1021/ci0500132,217.0,"bicyclo[6.1.0]nonane-9,9-dicarboxylic acid",O=C(O)C1(C(=O)O)C2CCCCCCC21,Karthikeyan M.; Glen R.C.; Bender A. General melting point prediction based on a diverse compound dataset and artificial neural networks. J. Chem. Inf. Model.; 2005; 45(3); 581-4035
3112,67572.0,,,3113.0,http://www.alfa.com/en/GP100W.pgm?DSSTK=A14325,98.0,"3-(3,4-dimethoxyphenyl)propionic acid",COc1ccc(cc1OC)CCC(=O)O,Alfa Aesar
3550,6298.0,,,3551.0,http://www.alfa.com/en/GP100W.pgm?DSSTK=B22491,54.0,"3,6-dimethyl-4-octyn-3,6-diol",CCC(C)(C#CC(C)(CC)O)O,Alfa Aesar
12910,13774.0,,,12911.0,http://dx.doi.org/10.1021/ci0500132,157.0,"Diethyl 4-phenyl-2,6-dimethyl-1,4-dihydropyridine-3,5-dicarboxylate",O=C(OCC)C1=C(NC(C)=C(C(=O)OCC)C1c1ccccc1)C,Karthikeyan M.; Glen R.C.; Bender A. General melting point prediction based on a diverse compound dataset and artificial neural networks. J. Chem. Inf. Model.; 2005; 45(3); 581-4493
15037,10582.0,,,15038.0,http://msds.chem.ox.ac.uk/,154.5,1H-Phenalen-1-one,O=C3C=Cc2cccc1cccc3c12,academic website
3632,7099.0,,,3633.0,http://www.alfa.com/en/GP100W.pgm?DSSTK=B25439,141.0,3-aminobenzenesulfonamide,c1cc(cc(c1)S(=O)(=O)N)N,Alfa Aesar
13013,4455.0,,,13014.0,http://dx.doi.org/10.1021/ci0500132,205.0,Oxazepam,Clc1ccc2NC(=O)C(O)N=C(c2c1)c1ccccc1,Karthikeyan M.; Glen R.C.; Bender A. General melting point prediction based on a diverse compound dataset and artificial neural networks. J. Chem. Inf. Model.; 2005; 45(3); 581-4596
12783,66213.0,,,12784.0,http://dx.doi.org/10.1021/ci0500132,244.0,"1H-pyrido[3,4-b]indole-3-carboxylic acid, 2,3,4,9-tetrahydro-1-methyl-",O=C(O)C1NC(C)C2=NC3=CCC=CC3=C2C1,Karthikeyan M.; Glen R.C.; Bender A. General melting point prediction based on a diverse compound dataset and artificial neural networks. J. Chem. Inf. Model.; 2005; 45(3); 581-4366
12962,8330.0,,,12963.0,http://dx.doi.org/10.1021/ci0500132,50.0,4-Methylbenzophenone,O=C(c1ccccc1)c1ccc(C)cc1,Karthikeyan M.; Glen R.C.; Bender A. General melting point prediction based on a diverse compound dataset and artificial neural networks. J. Chem. Inf. Model.; 2005; 45(3); 581-4545
5042,78744.0,,,5043.0,http://www.alfa.com/en/GP100W.pgm?DSSTK=L11659,62.0,4-diethylaminosalicylaldehyde,CCN(CC)c1ccc(c(c1)O)C=O,Alfa Aesar
14021,6100.0,,,14022.0,http://www.questia.com/library/book/physical_properties_of_chemical_compounds_by_robert_rickert_dreisbach.jsp,-111.0,iodoethane,CCI,Dreisbach R. R. Physical Properties of Chemical Compounds; Vol. III; American Chemical Society; Washington; 1961.
3485,65710.0,,,3486.0,http://www.alfa.com/en/GP100W.pgm?DSSTK=B24817,144.0,"3,5-dimethoxybenzamide",COc1cc(cc(c1)OC)C(=O)N,Alfa Aesar
22376,785.0,,,22377.0,http://www.srcinc.com/what-we-do/product.aspx?id=133,113.6,iodine,II,PHYSPROP
7151,248850.0,,,7152.0,http://www.alfa.com/en/GP100W.pgm?DSSTK=A19062,76.0,ethyl 9-fluorenylideneacetate,CCOC(=O)C=C1c2ccccc2-c3c1cccc3,Alfa Aesar
27148,21186173.0,,,27149.0,http://scripts.iucr.org/cgi-bin/paper?fg1300,111.35,3-Deoxy-beta-D-erythro-hex-2-ulopyranose,O[C@H]1C[C@](O)(OC[C@H]1O)CO,IUCr
2669,306289.0,,,2670.0,http://www.alfa.com/en/GP100W.pgm?DSSTK=44755,346.0,2-fluoropyridine-4-carboxylic acid,c1cnc(cc1C(=O)O)F,Alfa Aesar
5015,94527.0,,,5016.0,http://www.alfa.com/en/GP100W.pgm?DSSTK=B22607,129.0,4-cyano-4''-n-pentyl-p-terphenyl,CCCCCc1ccc(cc1)c2ccc(cc2)c3ccc(cc3)C#N,Alfa Aesar
21704,4330.0,,,21705.0,http://www.srcinc.com/what-we-do/product.aspx?id=133,173.0,nifedipine,CC=1NC(C)=C(C(C=1C(=O)OC)c2ccccc2[N+]([O-])=O)C(=O)OC,PHYSPROP
6513,5554.0,,,6514.0,http://www.alfa.com/en/GP100W.pgm?DSSTK=L03801,177.0,beta-estradiol,C[C@]12CC[C@@H]3c4ccc(cc4CC[C@H]3[C@@H]1CC[C@@H]2O)O,Alfa Aesar
3708,21242264.0,,,3709.0,http://www.alfa.com/en/GP100W.pgm?DSSTK=H26152,72.0,3-bromo-5-fluoro-4-methoxyaniline,COc1c(cc(cc1Br)N)F,Alfa Aesar
11478,2031533.0,,,11479.0,http://dx.doi.org/10.1021/ci0500132,301.0,"3,7-diphenylpyrido[3,2-g]quinoline-2,8-diamine",Nc1[nH0]c2cc3[nH0]c(N)c(cc3cc2cc1c1ccccc1)c1ccccc1,Karthikeyan M.; Glen R.C.; Bender A. General melting point prediction based on a diverse compound dataset and artificial neural networks. J. Chem. Inf. Model.; 2005; 45(3); 581-3061
28572,5791.0,,,28573.0,http://dx.doi.org/10.1080/10629360701430124,154.0,testosterone,O=C4\C=C2/[C@]([C@H]1CC[C@@]3([C@@H](O)CC[C@H]3[C@@H]1CC2)C)(C)CC4,RAEVSKY OA; PERLOVICH GL and SCHAPER K-J. Physicochemical properties/descriptors governing the solubility and partitioning of chemicals in water-solvent-gas systems. Part 2. Solubility in 1-octanol. SAR and QSAR in Environmental Research Vol. 18 Nos. 5–6 July–September 2007 543–578
2482,2054937.0,,,2483.0,http://www.alfa.com/en/GP100W.pgm?DSSTK=A11048,40.0,2-chloronicotinoyl chloride,c1cc(c(nc1)Cl)C(=O)Cl,Alfa Aesar
12430,507540.0,,,12431.0,http://dx.doi.org/10.1021/ci0500132,88.0,"4,7-dimethyl-2-benzofuran-1(3H)-one",O=C1OCc2c1c(C)ccc2C,Karthikeyan M.; Glen R.C.; Bender A. General melting point prediction based on a diverse compound dataset and artificial neural networks. J. Chem. Inf. Model.; 2005; 45(3); 581-4013
15429,21106140.0,,,15430.0,http://msds.chem.ox.ac.uk/,-4.0,"4-Allyl-1,2-dimethoxybenzene",COc1cc(ccc1OC)CC=C,academic website
25515,3083088.0,,,25516.0,http://www.srcinc.com/what-we-do/product.aspx?id=133,194.0,"p-(2,4-dinitroaniline)phenol",Oc2ccc(Nc1ccc(cc1[N+]([O-])=O)[N+]([O-])=O)cc2,PHYSPROP
3800,21242453.0,,,3801.0,http://www.alfa.com/en/GP100W.pgm?DSSTK=H27725,212.0,3-chloro-4-formylbenzeneboronic acid,B(c1ccc(c(c1)Cl)C=O)(O)O,Alfa Aesar
5319,74544.0,,,5320.0,http://www.alfa.com/en/GP100W.pgm?DSSTK=B24905,175.0,4-methoxy-3-nitrobenzamide,COc1ccc(cc1[N+](=O)[O-])C(=O)N,Alfa Aesar
19134,11673.0,,,19135.0,http://www.srcinc.com/what-we-do/product.aspx?id=133,117.0,"1,4-benzenedicarboxaldehyde",O=Cc1ccc(C=O)cc1,PHYSPROP
8215,4518.0,,,8216.0,http://www.alfa.com/en/GP100W.pgm?DSSTK=L04152,147.0,papaverine,COc1ccc(cc1OC)Cc2c3cc(c(cc3ccn2)OC)OC,Alfa Aesar
4146,69973.0,,,4147.0,http://www.alfa.com/en/GP100W.pgm?DSSTK=A14310,58.0,3-nitrobenzyl bromide,c1cc(cc(c1)[N+](=O)[O-])CBr,Alfa Aesar
13100,172.0,,,13101.0,http://www.amazon.com/dp/B003XEQTLE,-125.0,acetaldehyde,CC=O,Aldrich Chemical Company; Aldrich Catalog-Handbook of Fine Chemicals; Milwaukee; WI; 1984.
3312,495494.0,,,3313.0,http://www.alfa.com/en/GP100W.pgm?DSSTK=A13067,56.0,"3,4-difluorobenzophenone",c1ccc(cc1)C(=O)c2ccc(c(c2)F)F,Alfa Aesar
2416,82951.0,,,2417.0,http://www.alfa.com/en/GP100W.pgm?DSSTK=A11978,43.0,2-chloro-6-fluorobenzyl alcohol,c1cc(c(c(c1)Cl)CO)F,Alfa Aesar
25489,2575526.0,,,25490.0,http://www.srcinc.com/what-we-do/product.aspx?id=133,150.5,algestone acetophenide,CC(=O)C53OC(C)(OC5CC2C4CCC1=CC(=O)CCC1(C)C4CCC23C)c6ccccc6,PHYSPROP
14594,644222.0,,,14595.0,http://www.amazon.com/dp/B003XEQTLE,262.0,4-bromocinnamic_acid,Brc1ccc(/C=C/C(=O)O)cc1,Aldrich Chemical Company; Aldrich Catalog-Handbook of Fine Chemicals; Milwaukee; WI; 1984.
19621,10433.0,,,19622.0,http://www.srcinc.com/what-we-do/product.aspx?id=133,-71.4,2-methylpropyl propanoate,CCC(=O)OCC(C)C,PHYSPROP
11889,2029900.0,,,11890.0,http://dx.doi.org/10.1021/ci0500132,236.0,"3,3,3-trifluoro-N-(4-iodophenyl)-2-(trifluoromethyl)propanamide",Ic1ccc(NC(=O)C(C(F)(F)F)C(F)(F)F)cc1,Karthikeyan M.; Glen R.C.; Bender A. General melting point prediction based on a diverse compound dataset and artificial neural networks. J. Chem. Inf. Model.; 2005; 45(3); 581-3472
13352,7706.0,,,13353.0,http://www.amazon.com/dp/B003XEQTLE,-95.0,propyl_acetate,CC(=O)OCCC,Aldrich Chemical Company; Aldrich Catalog-Handbook of Fine Chemicals; Milwaukee; WI; 1984.
2673,42337.0,,,2674.0,http://www.alfa.com/en/GP100W.pgm?DSSTK=A14605,133.0,2-formylphenoxyacetic acid,c1ccc(c(c1)C=O)OCC(=O)O,Alfa Aesar
12722,86221.0,,,12723.0,http://dx.doi.org/10.1021/ci0500132,163.0,"1,1,2-triphenylethane-1,2-diol",OC(c1ccccc1)C(O)(c1ccccc1)c1ccccc1,Karthikeyan M.; Glen R.C.; Bender A. General melting point prediction based on a diverse compound dataset and artificial neural networks. J. Chem. Inf. Model.; 2005; 45(3); 581-4305
18266,15724.0,,,18267.0,http://www.srcinc.com/what-we-do/product.aspx?id=133,125.5,"2,3,4,5,6-pentachlorpyridine",Clc1c(Cl)c(Cl)nc(Cl)c1Cl,PHYSPROP
13585,4937374.0,,,13586.0,http://www.amazon.com/dp/B003XEQTLE,-48.0,"cis-1,4-dichloro-2-butene",ClCC=C/CCl,Aldrich Chemical Company; Aldrich Catalog-Handbook of Fine Chemicals; Milwaukee; WI; 1984.
789,500377.0,,,790.0,http://www.alfa.com/en/GP100W.pgm?DSSTK=B25628,112.0,1-(6-methoxy-2-naphthyl)ethanol,CC(c1ccc2cc(ccc2c1)OC)O,Alfa Aesar
21494,5256.0,,,21495.0,http://www.srcinc.com/what-we-do/product.aspx?id=133,155.6,thiram,CN(C)C(=S)SSC(=S)N(C)C,PHYSPROP
4722,267527.0,,,4723.0,http://www.alfa.com/en/GP100W.pgm?DSSTK=B20118,212.0,4-bromo-2-fluorobenzoic acid,c1cc(c(cc1Br)F)C(=O)O,Alfa Aesar
6577,7672.0,,,6578.0,http://www.alfa.com/en/GP100W.pgm?DSSTK=31031,-57.0,bromocyclohexane,C1CCC(CC1)Br,Alfa Aesar
6633,59567.0,,,6634.0,http://www.alfa.com/en/GP100W.pgm?DSSTK=41352,15.0,chlorodiphenylphosphine,c1ccc(cc1)P(c2ccccc2)Cl,Alfa Aesar
1826,11320.0,,,1827.0,http://www.alfa.com/en/GP100W.pgm?DSSTK=L00856,62.0,"2,6-dinitrotoluene",Cc1c(cccc1[N+](=O)[O-])[N+](=O)[O-],Alfa Aesar
9924,4582184.0,,,9925.0,http://dx.doi.org/10.1021/ci0500132,221.0,"(1Z,1'Z)-1,1'-(1,4-dihydroquinoxaline-2,3-diylidene)bis(4,4-dimethylpentan-2-one)",O=C(C=C1Nc2ccccc2NC1=CC(=O)CC(C)(C)C)CC(C)(C)C,Karthikeyan M.; Glen R.C.; Bender A. General melting point prediction based on a diverse compound dataset and artificial neural networks. J. Chem. Inf. Model.; 2005; 45(3); 581-1507
26876,21111786.0,,,26877.0,http://www.srcinc.com/what-we-do/product.aspx?id=133,56.0,3-bromo-1-nitrobenzene,O=[N+]([O-])c1cc(Br)ccc1,PHYSPROP
18451,14797.0,,,18452.0,http://www.srcinc.com/what-we-do/product.aspx?id=133,151.0,"3,6-dichloropicolinic acid",Clc1ccc(Cl)nc1C(=O)O,PHYSPROP
16882,5303.0,,,16883.0,http://www.drugbank.ca/drugs/DB00797,174.0,Tolazoline,c2cc(CC1=NCCN1)ccc2,DrugBank
6034,89118.0,,,6035.0,http://www.alfa.com/en/GP100W.pgm?DSSTK=B20336,2.0,5-undecanone,CCCCCCC(=O)CCCC,Alfa Aesar
14994,6429.0,,,14995.0,http://msds.chem.ox.ac.uk/,226.0,"1-Amino-2,4-dibromo-9,10-anthraquinone",O=C2c1ccccc1C(=O)c3c2c(N)c(Br)cc3Br,academic website
17169,4268.0,,,17170.0,http://dx.doi.org/10.1021/ci700307p,229.5,nalidixic acid,O=C(O)C2=CN(CC)c1nc(C)ccc1C2=O,Hughes LD; Palmer DS; Nigsch F and Mitchell JBO. 2008 Why are some properties more difficult to predict than others? A study of QSPR models of solubility; melting point and LogP. J. Chem. Inf. Model. 2008. 48 (1). pp 220?317
15123,23422.0,,,15124.0,http://msds.chem.ox.ac.uk/,123.5,"2,2-Dibromo-2-cyanoacetamide",BrC(Br)(C#N)C(N)=O,academic website
1792,13859730.0,,,1793.0,http://www.alfa.com/en/GP100W.pgm?DSSTK=L10761,-54.0,"2,6-diisopropylaniline",CC(C)c1cccc(c1N)C(C)C,Alfa Aesar
514,61262.0,,,515.0,http://www.alfa.com/en/GP100W.pgm?DSSTK=A18411,-1.0,"1,4-bis(trifluoromethyl)benzene",c1cc(ccc1C(F)(F)F)C(F)(F)F,Alfa Aesar
9654,4645467.0,,,9655.0,http://dx.doi.org/10.1021/ci0500132,196.0,"(2E)-[(4-fluorophenyl)hydrazono][4-(4-methylphenyl)-1,3-thiazol-2-yl]ethanenitrile",s1cc([nH0]c1C(=NNc1ccc(F)cc1)C#N)c1ccc(C)cc1,Karthikeyan M.; Glen R.C.; Bender A. General melting point prediction based on a diverse compound dataset and artificial neural networks. J. Chem. Inf. Model.; 2005; 45(3); 581-1237
25046,368395.0,,,25047.0,http://www.srcinc.com/what-we-do/product.aspx?id=133,162.0,sinomenine,COC3=CC4C2Cc1ccc(OC)c(O)c1C4(CCN2C)CC3=O,PHYSPROP
5450,304821.0,,,5451.0,http://www.alfa.com/en/GP100W.pgm?DSSTK=L19782,166.0,4-nitro-1-naphthol,c1ccc2c(c1)c(ccc2O)[N+](=O)[O-],Alfa Aesar
16173,6287.0,,,16174.0,http://msds.chem.ox.ac.uk/,-56.0,Triethyl phosphate,CCOP(=O)(OCC)OCC,academic website
16807,8731.0,,,16808.0,http://www.drugbank.ca/drugs/DB02201,135.0,Malonate Ion,[O-]C(=O)CC([O-])=O,DrugBank
5907,455927.0,,,5908.0,http://www.alfa.com/en/GP100W.pgm?DSSTK=A13061,43.0,5-fluoro-2-methylbenzonitrile,Cc1ccc(cc1C#N)F,Alfa Aesar
10257,2036659.0,,,10258.0,http://dx.doi.org/10.1021/ci0500132,80.0,5-amino-1-(4-chlorophenyl)-1H-pyrazole-4-carbaldehyde,Clc1ccc([nH0]2[nH0]cc(C=O)c2N)cc1,Karthikeyan M.; Glen R.C.; Bender A. General melting point prediction based on a diverse compound dataset and artificial neural networks. J. Chem. Inf. Model.; 2005; 45(3); 581-1840
8034,16611.0,,,8035.0,http://www.alfa.com/en/GP100W.pgm?DSSTK=L06292,55.0,N-dodecyl 4-hydroxybenzoate,CCCCCCCCCCCCOC(=O)c1ccc(cc1)O,Alfa Aesar