,csid,donotuse,donotusebecause,key,link,mpC,name,smiles,source
7132,1425878.0,,,7133.0,http://www.alfa.com/en/GP100W.pgm?DSSTK=H25762,124.0,"ethyl 5-amino-1,2,3-thiadiazole-4-carboxylate",CCOC(=O)c1c(snn1)N,Alfa Aesar
25127,454786.0,,,25128.0,http://www.srcinc.com/what-we-do/product.aspx?id=133,67.0,cannabidiol,CC(=C)C2CCC(C)=CC2c1c(O)cc(CCCCC)cc1O,PHYSPROP
11921,2029735.0,,,11922.0,http://dx.doi.org/10.1021/ci0500132,176.0,"3-methylbutyl 4-furan-2-yl-6-methyl-2-oxo-1,2,3,4-tetrahydropyrimidine-5-carboxylate",O=C1NC(C)=C(C(=O)OCCC(C)C)C(N1)c1occc1,Karthikeyan M.; Glen R.C.; Bender A. General melting point prediction based on a diverse compound dataset and artificial neural networks. J. Chem. Inf. Model.; 2005; 45(3); 581-3504
8079,10641.0,,,8080.0,http://www.alfa.com/en/GP100W.pgm?DSSTK=L02059,162.0,nicotinic hydrazide,c1cc(cnc1)C(=O)NN,Alfa Aesar
22515,94.0,,,22516.0,http://www.srcinc.com/what-we-do/product.aspx?id=133,36.5,acetoacetic acid,CC(=O)CC(=O)O,PHYSPROP
461,213630.0,,,462.0,http://www.alfa.com/en/GP100W.pgm?DSSTK=B21972,113.0,"1,4-dipropionyloxybenzene",CCC(=O)Oc1ccc(cc1)OC(=O)CC,Alfa Aesar
5072,5383572.0,,,5073.0,http://www.alfa.com/en/GP100W.pgm?DSSTK=L08339,163.0,4-ethylbenzamide,CCc1ccc(cc1)C(=O)N,Alfa Aesar
17541,26916.0,,,17542.0,http://www.srcinc.com/what-we-do/product.aspx?id=133,77.0,"isopropyl 4,4'dibromobenzilate",OC(c1ccc(Br)cc1)(c2ccc(Br)cc2)C(=O)OC(C)C,PHYSPROP
12955,9048.0,,,12956.0,http://dx.doi.org/10.1021/ci0500132,116.0,"5-Methyl-10b-dimethylaminoethyl-10,11-dihydro-11-oxodibenzo[b,e][1,4]diazepine",O=C1N(CCN(C)C)c2ccccc2N(C)c2ccccc21,Karthikeyan M.; Glen R.C.; Bender A. General melting point prediction based on a diverse compound dataset and artificial neural networks. J. Chem. Inf. Model.; 2005; 45(3); 581-4538
12384,541836.0,,,12385.0,http://dx.doi.org/10.1021/ci0500132,108.0,androstan-16-one,O=C1CC2C3CCC4CCCCC4(C)C3CCC2(C)C1,Karthikeyan M.; Glen R.C.; Bender A. General melting point prediction based on a diverse compound dataset and artificial neural networks. J. Chem. Inf. Model.; 2005; 45(3); 581-3967
7891,81163.0,,,7892.0,http://www.alfa.com/en/GP100W.pgm?DSSTK=B21527,162.0,N-acetylindole-3-carboxaldehyde,CC(=O)n1cc(c2c1cccc2)C=O,Alfa Aesar
28192,3584.0,,,28193.0,http://dx.doi.org/10.1016/j.chemosphere.2013.10.095,159.0,Indomethacin,CC1=C(C2=C(N1C(=O)C3=CC=C(C=C3)Cl)C=CC(=C2)OC)CC(=O)O,Abraham M.H. and Acree Jr. W.E. The solubility of liquid and solid compounds in dry octan-1-ol. Chemosphere (2013)
26171,10442648.0,,,26172.0,http://www.srcinc.com/what-we-do/product.aspx?id=133,161.5,"1-(2-chloro),2-dibenzoyl-1-tert-butylhydrazine",O=C(c1ccccc1Cl)N(NC(=O)c2ccccc2)C(C)(C)C,PHYSPROP
22365,817.0,,,22366.0,http://www.srcinc.com/what-we-do/product.aspx?id=133,139.5,quinovose,OC1C(O)C(C)OC(O)C1O,PHYSPROP
27181,21138345.0,,,27182.0,http://scripts.iucr.org/cgi-bin/paper?ab1326,148.35,N-Benzoyl-N-(biphenyl-2-ylmethyl)benzamide,O=C(N(C(=O)c1ccccc1)Cc3ccccc3c2ccccc2)c4ccccc4,IUCr
25188,503087.0,,,25189.0,http://www.srcinc.com/what-we-do/product.aspx?id=133,274.0,desonide,OCC(=O)C54OC(C)(C)OC5CC3C2CCC1=CC(=O)C=CC1(C)C2C(O)CC34C,PHYSPROP
16054,11885.0,,,16055.0,http://msds.chem.ox.ac.uk/,9.9,Pentadecane,CCCCCCCCCCCCCCC,academic website
3884,214032.0,,,3885.0,http://www.alfa.com/en/GP100W.pgm?DSSTK=B24762,52.0,3-ethoxy-4-methoxybenzaldehyde,CCOc1cc(ccc1OC)C=O,Alfa Aesar
15463,11592.0,,,15464.0,http://msds.chem.ox.ac.uk/,205.0,4-Hydrazinobenzoic acid,NNc1ccc(cc1)C(=O)O,academic website
25063,392618.0,,,25064.0,http://www.srcinc.com/what-we-do/product.aspx?id=133,181.0,retinoic acid,CC=1CCCC(C)(C)C=1/C=CC(C)=CC=CC(C)=CC(=O)O,PHYSPROP
11787,2030441.0,,,11788.0,http://dx.doi.org/10.1021/ci0500132,44.0,"2-methyl-3,5-diphenylfuran",o1c(cc(c2ccccc2)c1C)c1ccccc1,Karthikeyan M.; Glen R.C.; Bender A. General melting point prediction based on a diverse compound dataset and artificial neural networks. J. Chem. Inf. Model.; 2005; 45(3); 581-3370
15530,6924.0,,,15531.0,http://msds.chem.ox.ac.uk/,162.0,"6-Ethoxy-1,3-benzothiazol-2-amine",CCOc1ccc2nc(N)sc2c1,academic website
14581,14942.0,,,14582.0,http://www.amazon.com/dp/B002IYRJWI,-2.0,decylcyclohexane,CCCCCCCCCCC1CCCCC1,American Petroleum Institute. Research Project 44; Selected Values of Properties of Hydrocarbons and Related Compounds. Texas A & M University; College Station; TX; 1973.
4095,66452.0,,,4096.0,http://www.alfa.com/en/GP100W.pgm?DSSTK=A15772,-40.0,3-methylbenzo[b]thiophene,Cc1csc2c1cccc2,Alfa Aesar
11684,2030657.0,,,11685.0,http://dx.doi.org/10.1021/ci0500132,87.0,(phenylimino)propanedinitrile,N#CC(=Nc1ccccc1)C#N,Karthikeyan M.; Glen R.C.; Bender A. General melting point prediction based on a diverse compound dataset and artificial neural networks. J. Chem. Inf. Model.; 2005; 45(3); 581-3267
5088,2019180.0,,,5089.0,http://www.alfa.com/en/GP100W.pgm?DSSTK=H26637,50.0,4-fluoro-2-(trifluoromethyl)benzenesulfonyl chloride,c1cc(c(cc1F)C(F)(F)F)S(=O)(=O)Cl,Alfa Aesar
1119,74932.0,,,1120.0,http://www.alfa.com/en/GP100W.pgm?DSSTK=A17632,80.0,"2,2'-dibromobiphenyl",c1ccc(c(c1)c2ccccc2Br)Br,Alfa Aesar
3280,21106577.0,,,3281.0,http://www.alfa.com/en/GP100W.pgm?DSSTK=B24706,43.0,"3,4-dichlorobenzaldehyde",c1cc(c(cc1C=O)Cl)Cl,Alfa Aesar
3160,2015165.0,,,3161.0,http://www.alfa.com/en/GP100W.pgm?DSSTK=L18709,37.0,3-(methoxycarbonyl)phenyl isocyanate,COC(=O)c1cccc(c1)N=C=O,Alfa Aesar
27299,671227.0,x,Likely Kelvin temperature.,27300.0,http://scripts.iucr.org/cgi-bin/paper?ya6028,562.0,4-[(4-Ethoxyphenyl)amino]quinolin-2(1H)-one,O=C2C=C(c1c(cccc1)N2)Nc3ccc(OCC)cc3,IUCr
3530,9850.0,,,3531.0,http://www.alfa.com/en/GP100W.pgm?DSSTK=B23373,105.0,"3,5-di-tert-butyl-4-hydroxyanisole",CC(C)(C)c1cc(cc(c1O)C(C)(C)C)OC,Alfa Aesar
24843,172437.0,,,24844.0,http://www.srcinc.com/what-we-do/product.aspx?id=133,160.5,anhalonidine,Oc2c(OC)c(cc1CCNC(C)c12)OC,PHYSPROP
28225,1253.0,,,28226.0,http://chemspider.com/1253,134.0,mandelic acid,O=C(O)C(O)c1ccccc1,EPISuite-ChemSpider
9595,4645647.0,,,9596.0,http://dx.doi.org/10.1021/ci0500132,77.0,(2E)-3-(5-bromofuran-2-yl)-1-furan-2-ylprop-2-en-1-one,Brc1oc(cc1)C=CC(=O)c1occc1,Karthikeyan M.; Glen R.C.; Bender A. General melting point prediction based on a diverse compound dataset and artificial neural networks. J. Chem. Inf. Model.; 2005; 45(3); 581-1178
8236,125190.0,,,8237.0,http://www.alfa.com/en/GP100W.pgm?DSSTK=A13523,112.0,pentamethylphenylacetonitrile,Cc1c(c(c(c(c1C)C)CC#N)C)C,Alfa Aesar
10334,2036491.0,,,10335.0,http://dx.doi.org/10.1021/ci0500132,233.0,"4-(benzylamino)-5-chloro-3,6-dioxocyclohexa-1,4-diene-1,2-dicarbonitrile",ClC=1C(=O)C(C#N)=C(C#N)C(=O)C=1NCc1ccccc1,Karthikeyan M.; Glen R.C.; Bender A. General melting point prediction based on a diverse compound dataset and artificial neural networks. J. Chem. Inf. Model.; 2005; 45(3); 581-1917
24172,73261.0,,,24173.0,http://www.srcinc.com/what-we-do/product.aspx?id=133,-70.0,"1,5-heptadiene, 2,6-dimethyl-",C=C(C)CCC=C(/C)C,PHYSPROP
1935,2058573.0,,,1936.0,http://www.alfa.com/en/GP100W.pgm?DSSTK=L19548,73.0,2-amino-4-(trifluoromethyl)pyridine,c1cnc(cc1C(F)(F)F)N,Alfa Aesar
22350,852.0,,,22351.0,http://www.srcinc.com/what-we-do/product.aspx?id=133,169.0,tartaric acid,O=C(O)C(O)C(O)C(O)=O,PHYSPROP
13983,10977.0,,,13984.0,http://www.amazon.com/dp/B003XEQTLE,103.0,m-anisic_acid,COc1cc(ccc1)C(=O)O,Aldrich Chemical Company; Aldrich Catalog-Handbook of Fine Chemicals; Milwaukee; WI; 1984.
23694,65065.0,,,23695.0,http://www.srcinc.com/what-we-do/product.aspx?id=133,78.0,etisazol,CCNc2nsc1ccccc12,PHYSPROP
16148,22954.0,,,16149.0,http://msds.chem.ox.ac.uk/,-110.5,Thionyl difluoride,FS(F)=O,academic website
6084,2074053.0,,,6085.0,http://www.alfa.com/en/GP100W.pgm?DSSTK=H52823,53.0,6-bromobenzothiazole,c1cc2c(cc1Br)scn2,Alfa Aesar
19079,11807.0,,,19080.0,http://www.srcinc.com/what-we-do/product.aspx?id=133,-109.3,2-pentyne,CC#CCC,PHYSPROP
18668,13490.0,,,18669.0,http://www.srcinc.com/what-we-do/product.aspx?id=133,78.0,"1(2h)-naphthalenone, 3,4-dihydro-6-methoxy-",COc2ccc1c(CCCC1=O)c2,PHYSPROP
5333,10181338.0,,,5334.0,http://www.alfa.com/en/GP100W.pgm?DSSTK=A15697,184.0,4-methoxybenzoic acid,COc1ccc(cc1)C(=O)O,Alfa Aesar
7333,2016113.0,,,7334.0,http://www.alfa.com/en/GP100W.pgm?DSSTK=H27008,173.0,indole-5-boronic acid,B(c1ccc2c(c1)cc[nH]2)(O)O,Alfa Aesar
28488,9014352.0,,,28489.0,http://tinyurl.com/7jkc3t2,102.0,Pseudodiosgenin diacetate,O=C(OC[C@H](C)CCC=2O[C@H]3C[C@H]1[C@H]4[C@H](CC[C@]1(C)[C@H]3C=2C)[C@@]5(C(=C/C4)\C[C@@H](OC(=O)C)CC5)C)C,N.V. Organon; Patent: DE957481
15878,9129332.0,,,15879.0,http://msds.chem.ox.ac.uk/,150.5,L-Glucose,O[C@@H]([C@H](O)C=O)[C@@H](O)[C@@H](O)CO,academic website
24516,86149.0,,,24517.0,http://www.srcinc.com/what-we-do/product.aspx?id=133,60.5,iridomyrmecin,CC1CCC2C(C)C(=O)OCC12,PHYSPROP
23979,69597.0,,,23980.0,http://www.srcinc.com/what-we-do/product.aspx?id=133,246.5,"9,10-dibenzyl-anthracene",C(c3c1ccccc1c(Cc2ccccc2)c4ccccc34)c5ccccc5,PHYSPROP
7072,403820.0,,,7073.0,http://www.alfa.com/en/GP100W.pgm?DSSTK=A17236,110.0,"ethyl 3,4-diaminobenzoate",CCOC(=O)c1ccc(c(c1)N)N,Alfa Aesar
19532,10758.0,,,19533.0,http://www.srcinc.com/what-we-do/product.aspx?id=133,25.5,tri-m-cresyl phosphate,Cc1cc(ccc1)OP(=O)(Oc2cc(C)ccc2)Oc3cc(C)ccc3,PHYSPROP
2105,3511117.0,,,2106.0,http://www.alfa.com/en/GP100W.pgm?DSSTK=H32722,35.0,"2-bromo-3,5-bis(trifluoromethyl)aniline",c1c(cc(c(c1C(F)(F)F)Br)N)C(F)(F)F,Alfa Aesar
2193,62834.0,,,2194.0,http://www.alfa.com/en/GP100W.pgm?DSSTK=A11926,89.0,2-bromoacetamide,C(C(=O)N)Br,Alfa Aesar
5541,21319.0,,,5542.0,http://www.alfa.com/en/GP100W.pgm?DSSTK=L01949,63.0,4-phenoxybutyric acid,c1ccc(cc1)OCCCC(=O)O,Alfa Aesar
25750,4520017.0,,,25751.0,http://www.srcinc.com/what-we-do/product.aspx?id=133,-20.6,"2,6-dimethyl-octa-2,4,6-triene",CC(C)=CC=CC(C)=CC,PHYSPROP
5192,68000.0,,,5193.0,http://www.alfa.com/en/GP100W.pgm?DSSTK=B22664,131.0,"4-hydroxy-2,2,6,6-tetramethylpiperidine",CC1(CC(CC(N1)(C)C)O)C,Alfa Aesar
23781,66816.0,,,23782.0,http://www.srcinc.com/what-we-do/product.aspx?id=133,184.0,"pyridazine, 3-methyl-",Cc1cccnn1,PHYSPROP
25635,4474578.0,,,25636.0,http://www.srcinc.com/what-we-do/product.aspx?id=133,168.5,chondrillasterol,CC(C)C(CC)/C=C/C(C)C2CCC1C3=CCC4CC(O)CCC4(C)C3CCC12C,PHYSPROP
4931,18603.0,,,4932.0,http://www.alfa.com/en/GP100W.pgm?DSSTK=A11121,6.0,4-chloro-4'-fluorobutyrophenone,c1cc(ccc1C(=O)CCCCl)F,Alfa Aesar
27307,21186009.0,,,27308.0,http://scripts.iucr.org/cgi-bin/paper?jz1254,89.5,2-(4-Bromophenyl)-2-oxoethyl (2R)-2-(methoxymethyl)pyrrolidine-1-carbodithioate,Brc2ccc(C(=O)CSC(=S)N1[C@H](CCC1)COC)cc2,IUCr
13598,69826.0,,,13599.0,http://www.amazon.com/dp/B002IYRJWI,-115.0,isobutylcyclopentane,CC(C)CC1CCCC1,American Petroleum Institute. Research Project 44; Selected Values of Properties of Hydrocarbons and Related Compounds. Texas A & M University; College Station; TX; 1973.
13753,13871718.0,,,13754.0,http://www.amazon.com/dp/B003XEQTLE,-18.0,3-phenyl-1-propanol,OCCCc1ccccc1,Aldrich Chemical Company; Aldrich Catalog-Handbook of Fine Chemicals; Milwaukee; WI; 1984.
1062,2058284.0,,,1063.0,http://www.alfa.com/en/GP100W.pgm?DSSTK=L19717,182.0,2-(trifluoromethyl)benzenesulfonamide,c1ccc(c(c1)C(F)(F)F)S(=O)(=O)N,Alfa Aesar
15663,6097.0,,,15664.0,http://msds.chem.ox.ac.uk/,-139.0,Chloroethane,CCCl,academic website
16737,12013.0,,,16738.0,http://www.drugbank.ca/drugs/DB02448,44.5,N-Tridecanoic Acid,O=C(O)CCCCCCCCCCCC,DrugBank
11947,2029709.0,,,11948.0,http://dx.doi.org/10.1021/ci0500132,87.0,"dibutyl 4-furan-2-yl-2,6-dimethyl-1,4-dihydropyridine-3,5-dicarboxylate",O=C(OCCCC)C1=C(NC(C)=C(C(=O)OCCCC)C1c1occc1)C,Karthikeyan M.; Glen R.C.; Bender A. General melting point prediction based on a diverse compound dataset and artificial neural networks. J. Chem. Inf. Model.; 2005; 45(3); 581-3530
4550,62324.0,,,4551.0,http://www.alfa.com/en/GP100W.pgm?DSSTK=A16134,196.0,"4-amino-2,6-dibromophenol",c1c(cc(c(c1Br)O)Br)N,Alfa Aesar
8069,55123.0,,,8070.0,http://www.alfa.com/en/GP100W.pgm?DSSTK=L06226,-63.0,N-hexyl formate,CCCCCCOC=O,Alfa Aesar
16977,600426.0,,,16978.0,http://www.drugbank.ca/drugs/DB01880,225.0,"3,4-Dihydroxycinnamic Acid",Oc1ccc(/C=C/C(=O)O)cc1O,DrugBank
2589,3088471.0,,,2590.0,http://www.alfa.com/en/GP100W.pgm?DSSTK=H26573,80.0,2-fluoro-4-(trifluoromethyl)phenylacetic acid,c1cc(c(cc1C(F)(F)F)F)CC(=O)O,Alfa Aesar
9362,5257962.0,,,9363.0,http://dx.doi.org/10.1021/ci0500132,221.0,"4-{[(E)-1,3-Benzodioxol-5-ylmethylene]amino}-5-(trifluoromethyl)-4H-1,2,4-triazole-3-thiol",Sc1[nH0][nH0]c([nH0]1N=Cc1ccc2OCOc2c1)C(F)(F)F,Karthikeyan M.; Glen R.C.; Bender A. General melting point prediction based on a diverse compound dataset and artificial neural networks. J. Chem. Inf. Model.; 2005; 45(3); 581-945
22269,1216.0,,,22270.0,http://www.srcinc.com/what-we-do/product.aspx?id=133,38.0,"cyclohexanol, 5-methyl-2-(1-methylethyl)-, (1.al",CC(C)C1CCC(C)CC1O,PHYSPROP
11711,2030614.0,,,11712.0,http://dx.doi.org/10.1021/ci0500132,131.0,(E)-1-phenyl-2-{4-[(Z)-phenyl-NNO-azoxy]phenyl}diazene,[O-][N+](=Nc1ccccc1)c1ccc(N=Nc2ccccc2)cc1,Karthikeyan M.; Glen R.C.; Bender A. General melting point prediction based on a diverse compound dataset and artificial neural networks. J. Chem. Inf. Model.; 2005; 45(3); 581-3294
4764,717948.0,,,4765.0,http://www.alfa.com/en/GP100W.pgm?DSSTK=B22227,68.0,4-bromo-3-fluoroaniline,c1cc(c(cc1N)F)Br,Alfa Aesar
9439,4803333.0,,,9440.0,http://dx.doi.org/10.1021/ci0500132,227.0,"(1E)-3,6-dimethyl-2,3-dihydro-1H-inden-1-one semicarbazone",O=C(N)NN=C1CC(C)c2ccc(C)cc21,Karthikeyan M.; Glen R.C.; Bender A. General melting point prediction based on a diverse compound dataset and artificial neural networks. J. Chem. Inf. Model.; 2005; 45(3); 581-1022
16424,2662.0,,,16425.0,http://www.drugbank.ca/drugs/DB00537,256.0,Ciprofloxacin,O=C(O)C2=CN(c1cc(c(F)cc1C2=O)N3CCNCC3)C4CC4,DrugBank
17395,30657.0,,,17396.0,http://www.srcinc.com/what-we-do/product.aspx?id=133,242.0,clometacin,Clc1ccc(cc1)C(=O)c3c2ccc(cc2n(CC(=O)O)c3C)OC,PHYSPROP
10785,2034182.0,,,10786.0,http://dx.doi.org/10.1021/ci0500132,111.0,"dimethyl 3-methyl-1H-pyrazole-1,5-dicarboxylate",O=C(OC)[nH0]1[nH0]c(C)cc1C(=O)OC,Karthikeyan M.; Glen R.C.; Bender A. General melting point prediction based on a diverse compound dataset and artificial neural networks. J. Chem. Inf. Model.; 2005; 45(3); 581-2368
13849,13448.0,,,13850.0,http://www.amazon.com/dp/B002IYRJWI,-13.0,"2,2,5,5-tetramethylhexane",CC(C)(C)CCC(C)(C)C,American Petroleum Institute. Research Project 44; Selected Values of Properties of Hydrocarbons and Related Compounds. Texas A & M University; College Station; TX; 1973.
7733,62466.0,,,7734.0,http://www.alfa.com/en/GP100W.pgm?DSSTK=B24442,95.0,m-toluamide,Cc1cccc(c1)C(=O)N,Alfa Aesar
4577,2017601.0,,,4578.0,http://www.alfa.com/en/GP100W.pgm?DSSTK=H26084,139.0,4-amino-3-fluorophenol,c1cc(c(cc1O)F)N,Alfa Aesar
511,13835209.0,,,512.0,http://www.alfa.com/en/GP100W.pgm?DSSTK=L03491,20.0,"1,4-butanediol",C(CCO)CO,Alfa Aesar
5678,2029013.0,,,5679.0,http://www.alfa.com/en/GP100W.pgm?DSSTK=A12765,78.0,5-acetylthiophene-2-carbonitrile,CC(=O)c1ccc(s1)C#N,Alfa Aesar
3126,746437.0,,,3127.0,http://www.alfa.com/en/GP100W.pgm?DSSTK=A15081,290.0,3-(4-carboxyphenyl)propionic acid,c1cc(ccc1CCC(=O)O)C(=O)O,Alfa Aesar
14847,13323.0,,,14848.0,http://msds.chem.ox.ac.uk/,94.0,[5-Chloro-2-(methylamino)phenyl](phenyl)methanone,CNc1ccc(Cl)cc1C(=O)c2ccccc2,academic website
2799,616466.0,,,2800.0,http://www.alfa.com/en/GP100W.pgm?DSSTK=A18350,303.0,2-mercaptobenzimidazole,c1ccc2c(c1)[nH]c(n2)S,Alfa Aesar
21914,3230.0,,,21915.0,http://www.srcinc.com/what-we-do/product.aspx?id=133,59.5,esfenvalerate,Clc1ccc(cc1)C(C(C)C)C(=O)OC(C#N)c3cccc(Oc2ccccc2)c3,PHYSPROP
9390,4903886.0,,,9391.0,http://dx.doi.org/10.1021/ci0500132,164.0,"(2E)-1,8,8-trimethylbicyclo[3.2.1]octan-2-one oxime",ON=C1CCC2CCC1(C)C2(C)C,Karthikeyan M.; Glen R.C.; Bender A. General melting point prediction based on a diverse compound dataset and artificial neural networks. J. Chem. Inf. Model.; 2005; 45(3); 581-973
617,11436.0,,,618.0,http://www.alfa.com/en/GP100W.pgm?DSSTK=B21353,173.0,"1,3,5-triphenylbenzene",c1ccc(cc1)c2cc(cc(c2)c3ccccc3)c4ccccc4,Alfa Aesar
19877,9581.0,,,19878.0,http://www.srcinc.com/what-we-do/product.aspx?id=133,-35.0,m-fluoroanisole,Fc1cccc(OC)c1,PHYSPROP
7249,11728.0,,,7250.0,http://www.alfa.com/en/GP100W.pgm?DSSTK=A14901,57.0,formic acid hydrazide,C(=O)NN,Alfa Aesar
26161,10442501.0,,,26162.0,http://www.srcinc.com/what-we-do/product.aspx?id=133,176.5,"1-(3-fluoro),2-dibenzoyl-1-tert-butylhydrazine",O=C(c1cc(F)ccc1)N(NC(=O)c2ccccc2)C(C)(C)C,PHYSPROP
14875,9256.0,,,14876.0,http://msds.chem.ox.ac.uk/,-103.0,"1,1,1,2,2-Pentafluoroethane",FC(F)C(F)(F)F,academic website
20931,6795.0,,,20932.0,http://www.srcinc.com/what-we-do/product.aspx?id=133,78.0,"phenol, 3-(diethylamino)-",Oc1cccc(c1)N(CC)CC,PHYSPROP
25432,2062482.0,,,25433.0,http://www.srcinc.com/what-we-do/product.aspx?id=133,-137.0,"1-propene, 1,2-dichloro-1,3,3,3-tetrafluoro-",Cl/C(F)=C(/Cl)C(F)(F)F,PHYSPROP
14727,26000634.0,,,14728.0,http://de.wikipedia.org/wiki/Beilsteins_Handbuch_der_Organischen_Chemie,50.0,p-acetoxy_phenylacetonitrile,O=C(C)Oc1ccc(cc1)CC#N,Beilstein F. K.; Beilsteins Handbuch der Organischen Chemie. Springer; Berlin; 1972.
5051,3601987.0,,,5052.0,http://www.alfa.com/en/GP100W.pgm?DSSTK=L14176,145.0,4-dimethylaminobenzoyl chloride,CN(C)c1ccc(cc1)C(=O)Cl,Alfa Aesar
2548,60586.0,,,2549.0,http://www.alfa.com/en/GP100W.pgm?DSSTK=A14758,20.0,2-ethoxybenzoic acid,CCOc1ccccc1C(=O)O,Alfa Aesar
20190,8290.0,,,20191.0,http://www.srcinc.com/what-we-do/product.aspx?id=133,153.0,phenyl-4-aminosalicylate,Oc2cc(N)ccc2C(=O)Oc1ccccc1,PHYSPROP
6495,28960.0,,,6496.0,http://www.alfa.com/en/GP100W.pgm?DSSTK=B23186,222.0,benzyl propionate,CCC(=O)OCc1ccccc1,Alfa Aesar
12877,22694.0,,,12878.0,http://dx.doi.org/10.1021/ci0500132,83.0,"1H-indole, 2,3-dihydro-1-nitroso-",O=NN1CCc2ccccc12,Karthikeyan M.; Glen R.C.; Bender A. General melting point prediction based on a diverse compound dataset and artificial neural networks. J. Chem. Inf. Model.; 2005; 45(3); 581-4460
17344,5376.0,,,17345.0,http://dx.doi.org/10.1021/ci700307p,200.4,trimethoprim,Nc2nc(N)ncc2Cc1cc(OC)c(OC)c(OC)c1,Hughes LD; Palmer DS; Nigsch F and Mitchell JBO. 2008 Why are some properties more difficult to predict than others? A study of QSPR models of solubility; melting point and LogP. J. Chem. Inf. Model. 2008. 48 (1). pp 220?492
22692,39064.0,,,22693.0,http://www.srcinc.com/what-we-do/product.aspx?id=133,175.5,"1-naphthalenecarbonitrile, 4-amino-",N#Cc1ccc(N)c2ccccc12,PHYSPROP
24727,120209.0,,,24728.0,http://www.srcinc.com/what-we-do/product.aspx?id=133,-15.6,1-chloro-2-iodoethane,ClCCI,PHYSPROP
6363,11071.0,,,6364.0,http://www.alfa.com/en/GP100W.pgm?DSSTK=L07602,18.0,alpha-angelicalactone,CC1=CCC(=O)O1,Alfa Aesar
7277,10033.0,,,7278.0,http://www.alfa.com/en/GP100W.pgm?DSSTK=L05928,61.0,heptadecanoic acid,CCCCCCCCCCCCCCCCC(=O)O,Alfa Aesar
16771,2577.0,,,16772.0,http://www.drugbank.ca/drugs/DB00341,112.5,Cetirizine,O=C(O)COCCN1CCN(CC1)C(c2ccc(Cl)cc2)c3ccccc3,DrugBank
9767,4644990.0,,,9768.0,http://dx.doi.org/10.1021/ci0500132,170.0,"(3E)-4-[6,7-dimethoxy-4-(5-methylfuran-2-yl)cinnolin-3-yl]but-3-en-2-one",O=C(C)C=Cc1[nH0][nH0]c2cc(OC)c(OC)cc2c1c1oc(C)cc1,Karthikeyan M.; Glen R.C.; Bender A. General melting point prediction based on a diverse compound dataset and artificial neural networks. J. Chem. Inf. Model.; 2005; 45(3); 581-1350
4361,60927.0,,,4362.0,http://www.alfa.com/en/GP100W.pgm?DSSTK=A14176,-3.0,4-(trifluoromethyl)benzoyl chloride,c1cc(ccc1C(=O)Cl)C(F)(F)F,Alfa Aesar
13194,12924.0,,,13195.0,http://www.amazon.com/dp/B002IYRJWI,-78.0,"3,3-dimethyl-1-butyne",C#CC(C)(C)C,American Petroleum Institute. Research Project 44; Selected Values of Properties of Hydrocarbons and Related Compounds. Texas A & M University; College Station; TX; 1973.
20415,7798.0,,,20416.0,http://www.srcinc.com/what-we-do/product.aspx?id=133,-38.0,"tetracosane, 2,6,10,15,19,23-hexamethyl-",CC(C)CCCC(C)CCCC(C)CCCCC(C)CCCC(C)CCCC(C)C,PHYSPROP