,csid,donotuse,donotusebecause,key,link,mpC,name,smiles,source
28202,3693.0,,,28203.0,http://www.aapspharmscitech.org/view.asp?art=pt070126,94.0,ketoprofen,CC(c1cccc(c1)C(=O)c2ccccc2)C(=O)O,Sepassi K; Yalkowsky SH; AAPS PharmSciTech; 7(1); E1-E8 (2006)
27370,4445524.0,,,27371.0,http://www.springerlink.com/content/r6q63540r0023u37/fulltext.pdf,179.0,(2E)-3-(4-Hydroxyphenyl)-1-phenyl-2-propen-1-one,OC1=CC=C(C=C1)\C=C\C(=O)C2=CC=CC=C2,Pharmaceutical Research
21547,5090.0,,,21548.0,http://www.srcinc.com/what-we-do/product.aspx?id=133,155.5,"thymidine, 3'-deoxy-",CC1=CN(C(=O)NC1=O)C2CCC(CO)O2,PHYSPROP
18552,14240.0,,,18553.0,http://www.srcinc.com/what-we-do/product.aspx?id=133,220.0,tylocrebrine,COc3ccc2c1CN5CCCC5Cc1c4cc(OC)c(OC)cc4c2c3OC,PHYSPROP
3029,13856352.0,,,3030.0,http://www.alfa.com/en/GP100W.pgm?DSSTK=A13402,-60.0,2-phenylethylamine,c1ccc(cc1)CCN,Alfa Aesar
17732,22012.0,,,17733.0,http://www.srcinc.com/what-we-do/product.aspx?id=133,11.0,2-bromo-benzoyl chloride,O=C(Cl)c1ccccc1Br,PHYSPROP
7524,634827.0,,,7525.0,http://www.alfa.com/en/GP100W.pgm?DSSTK=A10799,124.0,"methyl 3,5-dibromo-4-hydroxybenzoate",COC(=O)c1cc(c(c(c1)Br)O)Br,Alfa Aesar
26081,10440065.0,,,26082.0,http://www.srcinc.com/what-we-do/product.aspx?id=133,79.0,"acetamide, 2-(benzoyloxy)-n-ethyl-n-(2-hydroxyet",CCN(CCO)C(=O)COC(=O)c1ccccc1,PHYSPROP
15567,7630.0,,,15568.0,http://msds.chem.ox.ac.uk/,-73.0,Acetic anhydride,CC(=O)OC(C)=O,academic website
25867,7840781.0,,,25868.0,http://www.srcinc.com/what-we-do/product.aspx?id=133,114.0,"1-phenyl-1,2-propanedione-2-oxime",O=C(C(C)=NO)c1ccccc1,PHYSPROP
5931,67282.0,,,5932.0,http://www.alfa.com/en/GP100W.pgm?DSSTK=L05708,196.0,"5-hydroxy-3,4-dimethoxybenzoic acid",COc1cc(cc(c1OC)O)C(=O)O,Alfa Aesar
9386,4907501.0,,,9387.0,http://dx.doi.org/10.1021/ci0500132,92.0,"(1Z)-1,2-diphenylethanone O-(phenylcarbonyl)oxime",O=C(ON=C(Cc1ccccc1)c1ccccc1)c1ccccc1,Karthikeyan M.; Glen R.C.; Bender A. General melting point prediction based on a diverse compound dataset and artificial neural networks. J. Chem. Inf. Model.; 2005; 45(3); 581-969
1648,81759.0,,,1649.0,http://www.alfa.com/en/GP100W.pgm?DSSTK=B21631,20.0,"2,5-dimethoxytoluene",Cc1cc(ccc1OC)OC,Alfa Aesar
8839,3561.0,,,8840.0,http://dx.doi.org/10.1021/ci020280x,114.0,ifenprodil,CC(C(O)c1ccc(O)cc1)N2CCC(CC2)Cc3ccccc3,Bergstrom C. A. S.; Norinder U.; Luthman K.; Artursson P. Molecular Descriptors Influencing Melting Point and Their Role in Classification of Solid Drugs. J. Chem. Inf. Comput. Sci.; (Article); 2003; 43(4); 1177-1286
9467,4773078.0,,,9468.0,http://dx.doi.org/10.1021/ci0500132,166.0,"(5Z)-5-[(2-hydroxyphenyl)methylidene]-3-(piperidin-1-ylmethyl)-2-thioxo-1,3-thiazolidin-4-one",S=C1SC(=Cc2ccccc2O)C(=O)N1CN1CCCCC1,Karthikeyan M.; Glen R.C.; Bender A. General melting point prediction based on a diverse compound dataset and artificial neural networks. J. Chem. Inf. Model.; 2005; 45(3); 581-1050
6826,79712.0,,,6827.0,http://www.alfa.com/en/GP100W.pgm?DSSTK=B22279,93.0,diethyl 4-aminobenzylphosphonate,CCOP(=O)(Cc1ccc(cc1)N)OCC,Alfa Aesar
16962,31608.0,,,16963.0,http://www.drugbank.ca/drugs/DB00776,215.5,Oxcarbazepine,NC(=O)N3c1ccccc1C(=O)Cc2ccccc23,DrugBank
17190,4757.0,,,17191.0,http://dx.doi.org/10.1021/ci700307p,33.0,promazine,CN(C)CCCN1c3ccccc3Sc2ccccc12,Hughes LD; Palmer DS; Nigsch F and Mitchell JBO. 2008 Why are some properties more difficult to predict than others? A study of QSPR models of solubility; melting point and LogP. J. Chem. Inf. Model. 2008. 48 (1). pp 220?338
23742,66350.0,,,23743.0,http://www.srcinc.com/what-we-do/product.aspx?id=133,225.0,"propane, 1,3-diiodo-2,2-bis(iodomethyl)-",ICC(CI)(CI)CI,PHYSPROP
15316,11279086.0,,,15317.0,http://msds.chem.ox.ac.uk/,93.0,2-Nitro-N-phenylacetamide,O=C(Nc1ccccc1)C[N+]([O-])=O,academic website
4686,5381032.0,,,4687.0,http://www.alfa.com/en/GP100W.pgm?DSSTK=H26212,52.0,"4-bromo-2,5-difluorophenol",c1c(c(cc(c1F)Br)F)O,Alfa Aesar
7597,11584.0,,,7598.0,http://www.alfa.com/en/GP100W.pgm?DSSTK=A15517,79.0,methyl 4-bromobenzoate,COC(=O)c1ccc(cc1)Br,Alfa Aesar
2565,6649.0,,,2566.0,http://www.alfa.com/en/GP100W.pgm?DSSTK=A16989,-15.0,2-ethylbutyric acid,CCC(CC)C(=O)O,Alfa Aesar
650,7364.0,,,651.0,http://www.alfa.com/en/GP100W.pgm?DSSTK=A14617,52.0,"1,2-diphenylethane",c1ccc(cc1)CCc2ccccc2,Alfa Aesar
25061,392447.0,,,25062.0,http://www.srcinc.com/what-we-do/product.aspx?id=133,133.0,"2-propenoic acid, 3-phenyl-, (e)-",O=C(O)/C=C/c1ccccc1,PHYSPROP
14171,6122.0,,,14172.0,http://www.amazon.com/dp/B003XEQTLE,-90.0,2-iodopropane,CC(C)I,Aldrich Chemical Company; Aldrich Catalog-Handbook of Fine Chemicals; Milwaukee; WI; 1984.
26461,13836549.0,,,26462.0,http://www.srcinc.com/what-we-do/product.aspx?id=133,5.3,hexafluorobenzene,Fc1c(F)c(F)c(F)c(F)c1F,PHYSPROP
9669,4645426.0,,,9670.0,http://dx.doi.org/10.1021/ci0500132,171.0,"(2E)-3-(4-fluorophenyl)-2-{4-methyl-5-[(E)-(2,4,6-tribromophenyl)diazenyl]-1,3-thiazol-2-yl}prop-2-enenitrile",Brc1cc(Br)c(N=Nc2sc([nH0]c2C)C(C#N)=Cc2ccc(F)cc2)c(Br)c1,Karthikeyan M.; Glen R.C.; Bender A. General melting point prediction based on a diverse compound dataset and artificial neural networks. J. Chem. Inf. Model.; 2005; 45(3); 581-1252
10748,2034433.0,,,10749.0,http://dx.doi.org/10.1021/ci0500132,244.0,"bis(4-chlorophenyl) 2,3,5,6-tetrachlorobenzene-1,4-dicarboxylate",Clc1ccc(OC(=O)c2c(Cl)c(Cl)c(c(Cl)c2Cl)C(=O)Oc2ccc(Cl)cc2)cc1,Karthikeyan M.; Glen R.C.; Bender A. General melting point prediction based on a diverse compound dataset and artificial neural networks. J. Chem. Inf. Model.; 2005; 45(3); 581-2331
9756,4645033.0,,,9757.0,http://dx.doi.org/10.1021/ci0500132,211.0,(2E)-N-(4-bromophenyl)-2-[(diaminomethylidene)hydrazono]-2-phenylethanethioamide,Brc1ccc(NC(=S)C(=NNC(=N)N)c2ccccc2)cc1,Karthikeyan M.; Glen R.C.; Bender A. General melting point prediction based on a diverse compound dataset and artificial neural networks. J. Chem. Inf. Model.; 2005; 45(3); 581-1339
15078,6823.0,,,15079.0,http://msds.chem.ox.ac.uk/,122.0,1-Phenylpyrazolidin-3-one,O=C1CCN(N1)c2ccccc2,academic website
11634,2030843.0,,,11635.0,http://dx.doi.org/10.1021/ci0500132,144.0,"2-[1,2-dichloro-2-(2-nitrophenyl)ethyl]pyridine",ClC(c1[nH0]cccc1)C(Cl)c1ccccc1[N+](=O)[O-],Karthikeyan M.; Glen R.C.; Bender A. General melting point prediction based on a diverse compound dataset and artificial neural networks. J. Chem. Inf. Model.; 2005; 45(3); 581-3217
14631,21723.0,,,14632.0,http://www.amazon.com/dp/B002IYRJWI,11.0,1-heptadecene,CCCCCCCCCCCCCCCC=C,American Petroleum Institute. Research Project 44; Selected Values of Properties of Hydrocarbons and Related Compounds. Texas A & M University; College Station; TX; 1973.
6215,643334.0,,,6216.0,http://www.alfa.com/en/GP100W.pgm?DSSTK=B21143,198.0,7-ethoxybenzo[b]furan-2-carboxylic acid,CCOc1cccc2c1oc(c2)C(=O)O,Alfa Aesar
27147,39401.0,,,27148.0,http://scripts.iucr.org/cgi-bin/paper?rz2037,112.35,"1-{[2-(2,4-Dichlorophenyl)-1,3-dioxolan-2-yl]methyl}-1H-1,2,4-triazole",Clc1cc(Cl)c(cc1)C2(OCCO2)Cn3ncnc3,IUCr
12934,11269.0,,,12935.0,http://dx.doi.org/10.1021/ci0500132,216.0,BINOL,Oc1ccc2ccccc2c1c1c(O)ccc2ccccc21,Karthikeyan M.; Glen R.C.; Bender A. General melting point prediction based on a diverse compound dataset and artificial neural networks. J. Chem. Inf. Model.; 2005; 45(3); 581-4517
27901,6593.0,,,27902.0,http://dx.doi.org/10.1016/j.chemosphere.2013.10.095,247.0,Carbazole,C1=CC=C2C(=C1)C3=CC=CC=C3N2,Abraham M.H. and Acree Jr. W.E. The solubility of liquid and solid compounds in dry octan-1-ol. Chemosphere (2013)
2722,63659.0,,,2723.0,http://www.alfa.com/en/GP100W.pgm?DSSTK=L19528,185.0,2-hydroxy-5-methylpyridine,Cc1ccc(nc1)O,Alfa Aesar
19332,11274.0,,,19333.0,http://www.srcinc.com/what-we-do/product.aspx?id=133,146.0,"anthracene, 9-nitro-",[O-][N+](=O)c2c3ccccc3cc1ccccc12,PHYSPROP
23888,67902.0,,,23889.0,http://www.srcinc.com/what-we-do/product.aspx?id=133,41.0,"acetic acid, (trimethylsilyl)-",O=C(O)C[Si](C)(C)C,PHYSPROP
6418,59146.0,,,6419.0,http://www.alfa.com/en/GP100W.pgm?DSSTK=B23971,103.0,benzenesulfonyl hydrazide,c1ccc(cc1)S(=O)(=O)NN,Alfa Aesar
17599,25244.0,,,17600.0,http://www.srcinc.com/what-we-do/product.aspx?id=133,211.5,prednival,OCC(=O)C4(OC(=O)CCCC)CCC3C2CCC1=CC(=O)C=CC1(C)C2C(O)CC34C,PHYSPROP
9696,4645380.0,,,9697.0,http://dx.doi.org/10.1021/ci0500132,215.0,4-[2-(4-chlorophenyl)hydrazino]-5-(trifluoromethyl)-3H-pyrazol-3-one,Clc1ccc(NN=C2C(=O)NN=C2C(F)(F)F)cc1,Karthikeyan M.; Glen R.C.; Bender A. General melting point prediction based on a diverse compound dataset and artificial neural networks. J. Chem. Inf. Model.; 2005; 45(3); 581-1279
3492,121945.0,,,3493.0,http://www.alfa.com/en/GP100W.pgm?DSSTK=B25672,103.0,"3,5-dimethoxyphenylacetic acid",COc1cc(cc(c1)OC)CC(=O)O,Alfa Aesar
11601,2030935.0,,,11602.0,http://dx.doi.org/10.1021/ci0500132,240.0,"5-ethyl-5-(4-methoxycyclohexyl)pyrimidine-2,4,6(1H,3H,5H)-trione",O=C1NC(=O)C(CC)(C(=O)N1)C1CCC(OC)CC1,Karthikeyan M.; Glen R.C.; Bender A. General melting point prediction based on a diverse compound dataset and artificial neural networks. J. Chem. Inf. Model.; 2005; 45(3); 581-3184
20063,8808.0,,,20064.0,http://www.srcinc.com/what-we-do/product.aspx?id=133,368.0,picene,c3cc5ccccc5c4ccc2c(ccc1ccccc12)c34,PHYSPROP
3609,8119.0,,,3610.0,http://www.alfa.com/en/GP100W.pgm?DSSTK=A19168,155.0,3-amino-4-methoxybenzanilide,COc1ccc(cc1N)C(=O)Nc2ccccc2,Alfa Aesar
18667,13493.0,,,18668.0,http://www.srcinc.com/what-we-do/product.aspx?id=133,102.5,phenylhydroquinone,Oc2ccc(O)cc2c1ccccc1,PHYSPROP
9884,4644528.0,,,9885.0,http://dx.doi.org/10.1021/ci0500132,58.0,1-acetyl-5-[(Z)-1-chloro-2-phenylethenyl]-6-nitro-2-phenyl-1H-indol-3-yl acetate,ClC(=Cc1ccccc1)c1cc2c([nH0](c(c3ccccc3)c2OC(=O)C)C(=O)C)cc1[N+](=O)[O-],Karthikeyan M.; Glen R.C.; Bender A. General melting point prediction based on a diverse compound dataset and artificial neural networks. J. Chem. Inf. Model.; 2005; 45(3); 581-1467
4979,9877.0,,,4980.0,http://www.alfa.com/en/GP100W.pgm?DSSTK=B24264,120.0,4-chloromandelic acid,c1cc(ccc1C(C(=O)O)O)Cl,Alfa Aesar
13004,4735.0,,,13005.0,http://dx.doi.org/10.1021/ci0500132,120.0,Konlax,OC(CCN1CCCCC1)(c1ccccc1)c1ccccc1,Karthikeyan M.; Glen R.C.; Bender A. General melting point prediction based on a diverse compound dataset and artificial neural networks. J. Chem. Inf. Model.; 2005; 45(3); 581-4587
5610,2087095.0,,,5611.0,http://www.alfa.com/en/GP100W.pgm?DSSTK=L15643,161.0,"5-(3,4-dichlorophenyl)-1h-tetrazole",c1cc(c(cc1c2[nH]nnn2)Cl)Cl,Alfa Aesar
5247,6035.0,,,5248.0,http://www.alfa.com/en/GP100W.pgm?DSSTK=A15314,150.0,4'-hydroxypropiophenone,CCC(=O)c1ccc(cc1)O,Alfa Aesar
19368,11181.0,,,19369.0,http://www.srcinc.com/what-we-do/product.aspx?id=133,82.5,a-hydroxy-i-butyric acid,O=C(O)C(C)(C)O,PHYSPROP
20936,6789.0,,,20937.0,http://www.srcinc.com/what-we-do/product.aspx?id=133,61.0,2-chloronaphthalene,Clc1ccc2ccccc2c1,PHYSPROP
3650,20245.0,,,3651.0,http://www.alfa.com/en/GP100W.pgm?DSSTK=A16695,38.0,3-benzoylpyridine,c1ccc(cc1)C(=O)c2cccnc2,Alfa Aesar
22444,428.0,,,22445.0,http://www.srcinc.com/what-we-do/product.aspx?id=133,49.0,3-hydroxybutyric acid,O=C(O)CC(C)O,PHYSPROP
6548,86740.0,,,6549.0,http://www.alfa.com/en/GP100W.pgm?DSSTK=B21645,29.0,bis(4-fluorophenyl)methane,c1cc(ccc1Cc2ccc(cc2)F)F,Alfa Aesar
17386,31017.0,,,17387.0,http://www.srcinc.com/what-we-do/product.aspx?id=133,106.0,penfluridol,FC(F)(F)c1cc(ccc1Cl)C4(O)CCN(CCCC(c2ccc(F)cc2)c3ccc(F)cc3)CC4,PHYSPROP
9757,4645032.0,,,9758.0,http://dx.doi.org/10.1021/ci0500132,207.0,(2E)-2-[(diaminomethylidene)hydrazono]-N-(2-methylphenyl)-2-phenylethanethioamide,S=C(Nc1ccccc1C)C(=NNC(=N)N)c1ccccc1,Karthikeyan M.; Glen R.C.; Bender A. General melting point prediction based on a diverse compound dataset and artificial neural networks. J. Chem. Inf. Model.; 2005; 45(3); 581-1340
9255,7855695.0,,,9256.0,http://dx.doi.org/10.1021/ci0500132,196.0,(1E)-1-benzylidene-2-(3-nitrophenyl)hydrazine,O=[N+]([O-])c1cccc(NN=Cc2ccccc2)c1,Karthikeyan M.; Glen R.C.; Bender A. General melting point prediction based on a diverse compound dataset and artificial neural networks. J. Chem. Inf. Model.; 2005; 45(3); 581-838
5034,3781377.0,,,5035.0,http://www.alfa.com/en/GP100W.pgm?DSSTK=L18076,220.0,4-cyclohexylbenzeneboronic acid,B(c1ccc(cc1)C2CCCCC2)(O)O,Alfa Aesar
17812,20762.0,,,17813.0,http://www.srcinc.com/what-we-do/product.aspx?id=133,73.0,"isopropyl-4,4'-dichlorobenzilate",OC(c1ccc(Cl)cc1)(c2ccc(Cl)cc2)C(=O)OC(C)C,PHYSPROP
15393,7311.0,,,15394.0,http://msds.chem.ox.ac.uk/,86.0,3-Oxo-N-phenylbutanamide,O=C(Nc1ccccc1)CC(C)=O,academic website
25194,508102.0,,,25195.0,http://www.srcinc.com/what-we-do/product.aspx?id=133,206.5,methylprednisolone acetate [usan:jan],CC(=O)OCC(=O)C4(O)CCC3C2CC(C)C1=CC(=O)C=CC1(C)C2C(O)CC34C,PHYSPROP
14189,10903.0,,,14190.0,http://www.amazon.com/dp/B003XEQTLE,78.0,m-phenylphenol,Oc1cc(ccc1)c2ccccc2,Aldrich Chemical Company; Aldrich Catalog-Handbook of Fine Chemicals; Milwaukee; WI; 1984.
6956,14710.0,x,metal - AL,6957.0,http://www.alfa.com/en/GP100W.pgm?DSSTK=A13919,62.0,diphenyl diselenide,c1ccc(cc1)[Se][Se]c2ccccc2,Alfa Aesar
2812,221926.0,,,2813.0,http://www.alfa.com/en/GP100W.pgm?DSSTK=A18306,54.0,2-methoxy-3-nitropyridine,COc1c(cccn1)[N+](=O)[O-],Alfa Aesar
6691,18370.0,x,probable outlier JCB,6692.0,http://www.alfa.com/en/GP100W.pgm?DSSTK=A14480,-20.0,cyclobutanecarboxylic acid,C1CC(C1)C(=O)O,Alfa Aesar
6559,67509.0,,,6560.0,http://www.alfa.com/en/GP100W.pgm?DSSTK=B21112,119.0,bis(diphenylphosphino)methane,c1ccc(cc1)P(CP(c2ccccc2)c3ccccc3)c4ccccc4,Alfa Aesar
5124,2054928.0,,,5125.0,http://www.alfa.com/en/GP100W.pgm?DSSTK=L19894,52.0,4'-fluoro-3'-methoxyacetophenone,CC(=O)c1ccc(c(c1)OC)F,Alfa Aesar
12727,85544.0,,,12728.0,http://dx.doi.org/10.1021/ci0500132,156.0,N-Hydroxyglycinamide,O=C(NO)CN,Karthikeyan M.; Glen R.C.; Bender A. General melting point prediction based on a diverse compound dataset and artificial neural networks. J. Chem. Inf. Model.; 2005; 45(3); 581-4310
10461,2035765.0,,,10462.0,http://dx.doi.org/10.1021/ci0500132,250.0,"N-[2-(2-chlorophenyl)-4-oxo-1,3-thiazolidin-3-yl]-3-(2-methyl-1H-benzimidazol-1-yl)propanamide",Clc1ccccc1C1SCC(=O)N1NC(=O)CC[nH0]1c2ccccc2[nH0]c1C,Karthikeyan M.; Glen R.C.; Bender A. General melting point prediction based on a diverse compound dataset and artificial neural networks. J. Chem. Inf. Model.; 2005; 45(3); 581-2044
25732,4517040.0,,,25733.0,http://www.srcinc.com/what-we-do/product.aspx?id=133,57.0,thiofanox,O=C(ON=C(CSC)C(C)(C)C)NC,PHYSPROP
19597,10503.0,,,19598.0,http://www.srcinc.com/what-we-do/product.aspx?id=133,-85.5,ethyl thiocyanate,N#CSCC,PHYSPROP
14641,10169.0,,,14642.0,http://www.amazon.com/dp/B003XEQTLE,94.0,triphenylmethane,c1ccccc1C(c2ccccc2)c3ccccc3,Aldrich Chemical Company; Aldrich Catalog-Handbook of Fine Chemicals; Milwaukee; WI; 1984.
2738,4962.0,,,2739.0,http://www.alfa.com/en/GP100W.pgm?DSSTK=A14410,85.0,2-hydroxybenzyl alcohol,c1ccc(c(c1)CO)O,Alfa Aesar
25271,553631.0,,,25272.0,http://www.srcinc.com/what-we-do/product.aspx?id=133,-124.2,"3,4-dimethyl-2-pentene",CC=C(/C)C(C)C,PHYSPROP
21153,6348.0,,,21154.0,http://www.srcinc.com/what-we-do/product.aspx?id=133,-33.0,dimethylcarbamyl chloride,CN(C)C(Cl)=O,PHYSPROP
8047,16737161.0,,,8048.0,http://www.alfa.com/en/GP100W.pgm?DSSTK=B21154,147.0,N-fmoc-L-isoleucine,CCC(C)[C@@H](C(=O)O)NC(=O)OCC1c2ccccc2-c3c1cccc3,Alfa Aesar
5215,13838151.0,,,5216.0,http://www.alfa.com/en/GP100W.pgm?DSSTK=A16248,-47.0,4-hydroxy-4-methyl-2-pentanone,CC(=O)CC(C)(C)O,Alfa Aesar
25008,276680.0,,,25009.0,http://www.srcinc.com/what-we-do/product.aspx?id=133,210.5,tomatidine,CC6C2C(CC3C4CCC1CC(O)CCC1(C)C4CCC23C)OC56CCC(C)CN5,PHYSPROP
1635,3453478.0,,,1636.0,http://www.alfa.com/en/GP100W.pgm?DSSTK=L20118,155.0,"2,5-diiodopyridine",c1cc(ncc1I)I,Alfa Aesar
6060,548.0,,,6061.0,http://www.alfa.com/en/GP100W.pgm?DSSTK=A14719,211.0,6-aminohexanoic acid,C(CCC(=O)O)CCN,Alfa Aesar
615,14361.0,,,616.0,http://www.alfa.com/en/GP100W.pgm?DSSTK=L18832,71.0,"1,3,5-tri-tert-butylbenzene",CC(C)(C)c1cc(cc(c1)C(C)(C)C)C(C)(C)C,Alfa Aesar
26603,13868426.0,,,26604.0,http://www.srcinc.com/what-we-do/product.aspx?id=133,53.0,"2,4-dinitrochlorobenzene",O=[N+]([O-])c1cc(ccc1Cl)[N+]([O-])=O,PHYSPROP
12227,1252946.0,,,12228.0,http://dx.doi.org/10.1021/ci0500132,206.0,"2-{[5-(4-Chlorophenyl)-2-furyl]methylene}-5,5-dimethylcyclohexane-1,3-dione",Clc1ccc(cc1)c1oc(cc1)C=C1C(=O)CC(C)(C)CC1=O,Karthikeyan M.; Glen R.C.; Bender A. General melting point prediction based on a diverse compound dataset and artificial neural networks. J. Chem. Inf. Model.; 2005; 45(3); 581-3810
6853,9233.0,,,6854.0,http://www.alfa.com/en/GP100W.pgm?DSSTK=L03493,-104.0,diethyl sulfide,CCSCC,Alfa Aesar
14962,7765.0,,,14963.0,http://msds.chem.ox.ac.uk/,-20.0,"1,4-Dibromobutane",BrCCCCBr,academic website
16300,4444451.0,,,16301.0,http://www.drugbank.ca/drugs/DB00681,170.0,Amphotericin B,O=C(O)[C@@H]3[C@@H](O)C[C@@]2(O)C[C@@H](O)C[C@@H](O)[C@H](O)CC[C@@H](O)C[C@@H](O)CC(=O)O[C@@H](C)[C@H](C)[C@H](O)[C@@H](C)C=CC=CC=CC=CC=CC=CC=C[C@H](O[C@@H]1O[C@H](C)[C@@H](O)[C@H](N)[C@@H]1O)C[C@@H]3O2,DrugBank
12627,202040.0,,,12628.0,http://dx.doi.org/10.1021/ci0500132,302.0,"N,N'-1,2-Phenylenedibenzamide",O=C(Nc1ccccc1NC(=O)c1ccccc1)c1ccccc1,Karthikeyan M.; Glen R.C.; Bender A. General melting point prediction based on a diverse compound dataset and artificial neural networks. J. Chem. Inf. Model.; 2005; 45(3); 581-4210
20746,7138.0,,,20747.0,http://www.srcinc.com/what-we-do/product.aspx?id=133,5.7,nitrobenzene,[O-][N+](=O)c1ccccc1,PHYSPROP
6354,13835977.0,,,6355.0,http://www.alfa.com/en/GP100W.pgm?DSSTK=L07162,-88.0,allylamine,C=CCN,Alfa Aesar
19700,10216.0,,,19701.0,http://www.srcinc.com/what-we-do/product.aspx?id=133,201.5,ricidine,O=C1C(C#N)=C(C=CN1C)OC,PHYSPROP
20993,6687.0,,,20994.0,http://www.srcinc.com/what-we-do/product.aspx?id=133,83.0,"2,4,6-trinitrochlorobenzene",O=[N+]([O-])c1cc(cc([N+]([O-])=O)c1Cl)[N+]([O-])=O,PHYSPROP
26659,13876621.0,,,26660.0,http://www.srcinc.com/what-we-do/product.aspx?id=133,1.0,adiponitrile,N#CCCCCC#N,PHYSPROP
28236,559067.0,,,28237.0,http://pubs.acs.org/doi/pdf/10.1021/jo01160a004,98.85,methadone,O=C(C(c1ccccc1)(c2ccccc2)C[C@@H](N(C)C)C)CC,Journal of Organic Chemistry
7942,64029.0,,,7943.0,http://www.alfa.com/en/GP100W.pgm?DSSTK=A17686,119.0,N-benzyloxycarbonyl-l-glutamic acid,c1ccc(cc1)COC(=O)N[C@@H](CCC(=O)O)C(=O)O,Alfa Aesar
12435,502838.0,,,12436.0,http://dx.doi.org/10.1021/ci0500132,194.0,3-(4-methoxyphenyl)-2-oxopropanoic acid,O=C(O)C(=O)Cc1ccc(OC)cc1,Karthikeyan M.; Glen R.C.; Bender A. General melting point prediction based on a diverse compound dataset and artificial neural networks. J. Chem. Inf. Model.; 2005; 45(3); 581-4018
27445,27793.0,,,27446.0,http://dx.doi.org/10.1016/j.chemosphere.2013.10.095,198.0,"1,2,3,4-Tetrachloronaphthalene",Clc2c1ccccc1c(Cl)c(Cl)c2Cl,Abraham M.H. and Acree Jr. W.E. The solubility of liquid and solid compounds in dry octan-1-ol. Chemosphere (2013)
16735,393722.0,,,16736.0,http://www.drugbank.ca/drugs/DB01874,43.0,Tropinone,CN2[C@H]1CC(=O)C[C@@H]2CC1,DrugBank
9577,4645695.0,,,9578.0,http://dx.doi.org/10.1021/ci0500132,150.0,(1E)-2-hydrazino-2-thioxoethanehydrazonamide,SC(=NN)C(N)=NN,Karthikeyan M.; Glen R.C.; Bender A. General melting point prediction based on a diverse compound dataset and artificial neural networks. J. Chem. Inf. Model.; 2005; 45(3); 581-1160
21403,5718.0,,,21404.0,http://www.srcinc.com/what-we-do/product.aspx?id=133,87.0,metol,CNc1ccc(O)cc1,PHYSPROP
5731,21242473.0,,,5732.0,http://www.alfa.com/en/GP100W.pgm?DSSTK=H27805,62.0,5-bromo-2-(tert-butoxy)pyrimidine,CC(C)(C)Oc1ncc(cn1)Br,Alfa Aesar
4849,543184.0,,,4850.0,http://www.alfa.com/en/GP100W.pgm?DSSTK=A19134,93.0,"4-chloro-2,6-dibromoaniline",c1c(cc(c(c1Br)N)Br)Cl,Alfa Aesar
25611,4445881.0,,,25612.0,http://www.srcinc.com/what-we-do/product.aspx?id=133,29.8,petroselinic acid,O=C(O)CCCC/C=C/CCCCCCCCCCC,PHYSPROP
2965,10619.0,,,2966.0,http://www.alfa.com/en/GP100W.pgm?DSSTK=A16677,92.0,2'-nitroacetanilide,CC(=O)Nc1ccccc1[N+](=O)[O-],Alfa Aesar