,csid,donotuse,donotusebecause,key,link,mpC,name,smiles,source
9267,7855608.0,,,9268.0,http://dx.doi.org/10.1021/ci0500132,212.0,"(2Z)-[2-(2,4-dichlorophenyl)hydrazinylidene][4-(4-methylphenyl)-1,3-thiazol-2-yl]ethanenitrile",Clc1ccc(NN=C(C#N)c2scc([nH0]2)c2ccc(C)cc2)c(Cl)c1,Karthikeyan M.; Glen R.C.; Bender A. General melting point prediction based on a diverse compound dataset and artificial neural networks. J. Chem. Inf. Model.; 2005; 45(3); 581-850
20932,6794.0,,,20933.0,http://www.srcinc.com/what-we-do/product.aspx?id=133,-38.8,"n,n-diethylaniline",CCN(CC)c1ccccc1,PHYSPROP
22454,376.0,,,22455.0,http://www.srcinc.com/what-we-do/product.aspx?id=133,106.0,pimelic acid,O=C(O)CCCCCC(=O)O,PHYSPROP
18193,16158.0,,,18194.0,http://www.srcinc.com/what-we-do/product.aspx?id=133,64.5,7-methyl-1-octanol,CC(C)CCCCCCO,PHYSPROP
23739,66343.0,,,23740.0,http://www.srcinc.com/what-we-do/product.aspx?id=133,140.5,"9,10-anthracenedione, 1,4-dimethyl-",Cc3ccc(C)c2c3C(=O)c1ccccc1C2=O,PHYSPROP
137,15805.0,,,138.0,http://www.alfa.com/en/GP100W.pgm?DSSTK=B24825,5.0,1-methoxynaphthalene,COc1cccc2c1cccc2,Alfa Aesar
684,62527.0,,,685.0,http://www.alfa.com/en/GP100W.pgm?DSSTK=L02019,69.0,"1,2-bis(phenylthio)ethane",c1ccc(cc1)SCCSc2ccccc2,Alfa Aesar
14500,13503.0,,,14501.0,http://www.amazon.com/dp/B002IYRJWI,-24.0,nonylbenzene,CCCCCCCCCc1ccccc1,American Petroleum Institute. Research Project 44; Selected Values of Properties of Hydrocarbons and Related Compounds. Texas A & M University; College Station; TX; 1973.
6381,74205.0,,,6382.0,http://www.alfa.com/en/GP100W.pgm?DSSTK=L04941,-62.0,alpha-pinene,CC1=CC[C@@H]2C[C@H]1C2(C)C,Alfa Aesar
18323,15473.0,,,18324.0,http://www.srcinc.com/what-we-do/product.aspx?id=133,29.0,"3,3'-dichlorobiphenyl",Clc1cc(ccc1)c2cc(Cl)ccc2,PHYSPROP
17231,2055.0,,,17232.0,http://dx.doi.org/10.1021/ci700307p,300.0,diatrizoic acid,O=C(C)Nc1c(I)c(c(I)c(NC(C)=O)c1I)C(=O)O,Hughes LD; Palmer DS; Nigsch F and Mitchell JBO. 2008 Why are some properties more difficult to predict than others? A study of QSPR models of solubility; melting point and LogP. J. Chem. Inf. Model. 2008. 48 (1). pp 220?379
27433,0.0,,,27434.0,http://www.beilstein-journals.org/bjoc/single/articleFullText.htm?publicId=1860-5397-8-29&vt=f&bpn=home,74.5,"1,2-Bis(tert-butoxycarbonyl)-1-(3,4,5-trihexylsulfanylphenyl)hydrazine",C(C)(C)(C)OC(=O)N(NC(=O)OC(C)(C)C)C1=CC(=C(C(=C1)SCCCCCC)SCCCCCC)SCCCCCC,Beilstein Journal of Organic Chemistry
6618,21112535.0,,,6619.0,http://www.alfa.com/en/GP100W.pgm?DSSTK=A14015,58.0,chloroacetic anhydride,C(C(=O)OC(=O)CCl)Cl,Alfa Aesar
28565,852.0,,,28566.0,http://chemspider.com/852,147.0,tartaric acid,O=C(O)C(O)C(O)C(=O)O,EPISuite-ChemSpider
15276,7728.0,,,15277.0,http://msds.chem.ox.ac.uk/,-85.0,2-Methoxyethanol,OCCOC,academic website
7144,203053.0,,,7145.0,http://www.alfa.com/en/GP100W.pgm?DSSTK=L17146,163.0,ethyl 5-methylindole-2-carboxylate,CCOC(=O)c1cc2cc(ccc2[nH]1)C,Alfa Aesar
27627,21106095.0,,,27628.0,http://dx.doi.org/10.1016/j.chemosphere.2013.10.095,41.3,"3,4-Dichloronitrobenzene",C1=CC(=C(C=C1[N+](=O)[O-])Cl)Cl,Abraham M.H. and Acree Jr. W.E. The solubility of liquid and solid compounds in dry octan-1-ol. Chemosphere (2013)
16701,5830.0,,,16702.0,http://www.drugbank.ca/drugs/DB02192,-27.0,2-Phenyl-Ethanol,OCCc1ccccc1,DrugBank
23859,67630.0,,,23860.0,http://www.srcinc.com/what-we-do/product.aspx?id=133,133.5,"2,5-cyclohexadien-1-one, 4-((4-(dimethylamino)ph",O=C2C=C/C(=Nc1ccc(cc1)N(C)C)C=C2,PHYSPROP
99,12691.0,,,100.0,http://www.alfa.com/en/GP100W.pgm?DSSTK=A17482,45.0,1-naphthyl acetate,CC(=O)Oc1cccc2c1cccc2,Alfa Aesar
17832,20381.0,,,17833.0,http://www.srcinc.com/what-we-do/product.aspx?id=133,-42.0,"2,6-di-sec-butylphenol",Oc1c(cccc1C(C)CC)C(C)CC,PHYSPROP
19970,9169.0,,,19971.0,http://www.srcinc.com/what-we-do/product.aspx?id=133,49.0,10-fluoro-decanoic acid,O=C(O)CCCCCCCCCF,PHYSPROP
19360,11200.0,,,19361.0,http://www.srcinc.com/what-we-do/product.aspx?id=133,153.0,"benzene, 1,1',1''-(bromomethylidyne)tris-",BrC(c1ccccc1)(c2ccccc2)c3ccccc3,PHYSPROP
26724,21105870.0,,,26725.0,http://www.srcinc.com/what-we-do/product.aspx?id=133,33.0,cinnamyl alcohol,OCC=Cc1ccccc1,PHYSPROP
24237,77282.0,,,24238.0,http://www.srcinc.com/what-we-do/product.aspx?id=133,32.0,"1,3-isobenzofurandione, hexahydro-",O=C1OC(=O)C2CCCCC12,PHYSPROP
8083,7138.0,,,8084.0,http://www.alfa.com/en/GP100W.pgm?DSSTK=A10585,6.0,nitrobenzene,c1ccc(cc1)[N+](=O)[O-],Alfa Aesar
2165,2063314.0,,,2166.0,http://www.alfa.com/en/GP100W.pgm?DSSTK=L19536,29.0,2-bromo-5-fluoropyridine,c1cc(ncc1F)Br,Alfa Aesar
1222,2062980.0,,,1223.0,http://www.alfa.com/en/GP100W.pgm?DSSTK=L20050,110.0,"2,3,5-trifluoropyridine-4-carboxylic acid",c1c(c(c(c(n1)F)F)C(=O)O)F,Alfa Aesar
4396,266507.0,,,4397.0,http://www.alfa.com/en/GP100W.pgm?DSSTK=A15911,192.0,"4,4'-diacetylbiphenyl",CC(=O)c1ccc(cc1)c2ccc(cc2)C(=O)C,Alfa Aesar
2573,7242.0,,,2574.0,http://www.alfa.com/en/GP100W.pgm?DSSTK=A17352,-63.0,2-ethylpyridine,CCc1ccccn1,Alfa Aesar
18337,15431.0,,,18338.0,http://www.srcinc.com/what-we-do/product.aspx?id=133,7.7,4-bromostyrene,C=Cc1ccc(Br)cc1,PHYSPROP
21359,5945.0,,,21360.0,http://www.srcinc.com/what-we-do/product.aspx?id=133,105.5,"l-methionine, n-acetyl-",O=C(C)NC(CCSC)C(=O)O,PHYSPROP
13899,10487671.0,,,13900.0,http://de.wikipedia.org/wiki/Beilsteins_Handbuch_der_Organischen_Chemie,152.0,o-vinylbenzamide,O=C(N)c1ccccc1C=C,Beilstein F. K.; Beilsteins Handbuch der Organischen Chemie. Springer; Berlin; 1972.
8098,58315.0,,,8099.0,http://www.alfa.com/en/GP100W.pgm?DSSTK=41570,87.0,N-methylephedrine,C[C@@H]([C@@H](c1ccccc1)O)N(C)C,Alfa Aesar
9409,4876112.0,,,9410.0,http://dx.doi.org/10.1021/ci0500132,212.0,"(2E)-{5-[(E)-(4-fluorophenyl)diazenyl]-4-methyl-1,3-thiazol-2-yl}{[3-(trifluoromethyl)phenyl]hydrazono}ethanenitrile",s1c(N=Nc2ccc(F)cc2)c([nH0]c1C(=NNc1cccc(c1)C(F)(F)F)C#N)C,Karthikeyan M.; Glen R.C.; Bender A. General melting point prediction based on a diverse compound dataset and artificial neural networks. J. Chem. Inf. Model.; 2005; 45(3); 581-992
15284,7166.0,,,15285.0,http://msds.chem.ox.ac.uk/,107.5,2-Methyl-5-nitroaniline,Cc1ccc(cc1N)[N+]([O-])=O,academic website
18461,14760.0,,,18462.0,http://www.srcinc.com/what-we-do/product.aspx?id=133,222.0,methyl terephthalate,COC(=O)c1ccc(cc1)C(=O)O,PHYSPROP
23235,61540.0,,,23236.0,http://www.srcinc.com/what-we-do/product.aspx?id=133,184.0,"2,5-cyclohexadiene-1,4-dione, 2,3,5,6-tetrafluor",FC=1C(=O)C(F)=C(F)C(=O)C=1F,PHYSPROP
20702,7212.0,,,20703.0,http://www.srcinc.com/what-we-do/product.aspx?id=133,254.0,"pyridine-2,5-dicarboxylic acid",OC(=O)c1ccc(cn1)C(=O)O,PHYSPROP
5013,83347.0,,,5014.0,http://www.alfa.com/en/GP100W.pgm?DSSTK=B21856,23.0,4-cyano-4'-n-pentylbiphenyl,CCCCCc1ccc(cc1)c2ccc(cc2)C#N,Alfa Aesar
17950,18724.0,,,17951.0,http://www.srcinc.com/what-we-do/product.aspx?id=133,-41.0,4-(tert-butyl)pyridine,CC(C)(C)c1ccncc1,PHYSPROP
11156,2032861.0,,,11157.0,http://dx.doi.org/10.1021/ci0500132,236.0,"methyl 3-formyl-6-methyl-2-oxo-4-phenyl-1,2,3,4-tetrahydropyrimidine-5-carboxylate",O=CN1C(=O)NC(C)=C(C(=O)OC)C1c1ccccc1,Karthikeyan M.; Glen R.C.; Bender A. General melting point prediction based on a diverse compound dataset and artificial neural networks. J. Chem. Inf. Model.; 2005; 45(3); 581-2739
8285,512638.0,,,8286.0,http://www.alfa.com/en/GP100W.pgm?DSSTK=L05984,151.0,phthalide-3-acetic acid,c1ccc2c(c1)C(OC2=O)CC(=O)O,Alfa Aesar
6521,3781375.0,,,6522.0,http://www.alfa.com/en/GP100W.pgm?DSSTK=L17547,179.0,biphenyl-2-boronic acid,B(c1ccccc1c2ccccc2)(O)O,Alfa Aesar
123,86565.0,,,124.0,http://www.alfa.com/en/GP100W.pgm?DSSTK=B25472,61.0,1-methylbenzimidazole,Cn1cnc2c1cccc2,Alfa Aesar
12488,350348.0,,,12489.0,http://dx.doi.org/10.1021/ci0500132,293.0,"11-methyl-5-oxo-5,11-dihydrobenzimidazo[1,2-g][1,6]naphthyridine-12-carbonitrile",O=C1N2c3ccccc3N(C)C2=C(C#N)c2[nH0]cccc12,Karthikeyan M.; Glen R.C.; Bender A. General melting point prediction based on a diverse compound dataset and artificial neural networks. J. Chem. Inf. Model.; 2005; 45(3); 581-4071
16247,2701.0,,,16248.0,http://www.drugbank.ca/drugs/DB00575,130.0,Clonidine,Clc2cccc(Cl)c2NC1=NCCN1,DrugBank
15733,11731.0,,,15734.0,http://msds.chem.ox.ac.uk/,-85.0,Dimethyl disulfide,CSSC,academic website
7667,7577.0,,,7668.0,http://www.alfa.com/en/GP100W.pgm?DSSTK=A15850,-100.0,methyl formate,COC=O,Alfa Aesar
15139,61540.0,,,15140.0,http://msds.chem.ox.ac.uk/,179.0,"2,3,5,6-Tetrafluoro-1,4-benzoquinone",FC=1C(=O)C(F)=C(F)C(=O)C=1F,academic website
20506,7635.0,,,20507.0,http://www.srcinc.com/what-we-do/product.aspx?id=133,52.8,maleic anhydride,O=C1C=CC(=O)O1,PHYSPROP
7245,71321.0,,,7246.0,http://www.alfa.com/en/GP100W.pgm?DSSTK=L13015,13.0,fluorocyclohexane,C1CCC(CC1)F,Alfa Aesar
27213,21187775.0,,,27214.0,http://scripts.iucr.org/cgi-bin/paper?br1047,180.35,"Dimethyl 1-{[(N-acetyl-L-alanyl)oxy]methyl}tetracyclo[6.6.2.0~2,7~.0~9,14~]hexadeca-2,4,6,9,11,13,15-heptaene-15,16-dicarboxylate",O=C(OC)C2=C(C(=O)OC)[C@]4(c1ccccc1[C@@H]2c3ccccc34)COC(=O)[C@@H](NC(=O)C)C,IUCr
9959,4513787.0,,,9960.0,http://dx.doi.org/10.1021/ci0500132,171.0,"(4Z)-5-methyl-2-phenyl-4-{[3-(trifluoromethyl)phenyl]hydrazono}-2,4-dihydro-3H-pyrazol-3-one",FC(F)(F)c1cccc(NN=C2C(=O)N(N=C2C)c2ccccc2)c1,Karthikeyan M.; Glen R.C.; Bender A. General melting point prediction based on a diverse compound dataset and artificial neural networks. J. Chem. Inf. Model.; 2005; 45(3); 581-1542
27237,21185549.0,,,27238.0,http://scripts.iucr.org/cgi-bin/paper?xu2194,220.85,"3-[(E)-(5-Ethyl-1,3,4-thiadiazol-2-yl)diazenyl]-1-methyl-2-phenyl-1H-indole",N(=N/c1nnc(s1)CC)c3c(c2ccccc2)n(c4ccccc34)C,IUCr
12824,61771.0,,,12825.0,http://dx.doi.org/10.1021/ci0500132,125.0,N-(3-methylphenyl)benzamide,O=C(Nc1cccc(C)c1)c1ccccc1,Karthikeyan M.; Glen R.C.; Bender A. General melting point prediction based on a diverse compound dataset and artificial neural networks. J. Chem. Inf. Model.; 2005; 45(3); 581-4407
19993,9026.0,,,19994.0,http://www.srcinc.com/what-we-do/product.aspx?id=133,300.0,paraoxon,[O-][N+](=O)c1ccc(OP(=O)(OCC)OCC)cc1,PHYSPROP
21813,3647.0,,,21814.0,http://www.srcinc.com/what-we-do/product.aspx?id=133,153.5,isoproterenol hydrochloride,Oc1ccc(cc1O)C(O)CNC(C)C,PHYSPROP
4327,13466.0,,,4328.0,http://www.alfa.com/en/GP100W.pgm?DSSTK=H26225,86.0,4-(methylthio)phenol,CSc1ccc(cc1)O,Alfa Aesar
4826,59691.0,,,4827.0,http://www.alfa.com/en/GP100W.pgm?DSSTK=A14349,46.0,4'-bromopropiophenone,CCC(=O)c1ccc(cc1)Br,Alfa Aesar
15121,13835895.0,,,15122.0,http://msds.chem.ox.ac.uk/,-4.0,"2,2'-[Ethane-1,2-diylbis(oxy)]diethanol",OCCOCCOCCO,academic website
16182,14961.0,,,16183.0,http://msds.chem.ox.ac.uk/,-74.0,Trioctyl phosphate,O=P(OCCCCCCCC)(OCCCCCCCC)OCCCCCCCC,academic website
19131,11694.0,,,19132.0,http://www.srcinc.com/what-we-do/product.aspx?id=133,112.5,"urea, n,n'-diethyl-",CCNC(=O)NCC,PHYSPROP
16719,4774.0,,,16720.0,http://www.drugbank.ca/drugs/DB00818,18.0,Propofol,CC(C)c1cccc(C(C)C)c1O,DrugBank
28127,10197150.0,,,28128.0,http://dx.doi.org/10.1016/j.chemosphere.2013.10.095,287.0,Fumaric Acid,C(=C/C(=O)O)\C(=O)O,Abraham M.H. and Acree Jr. W.E. The solubility of liquid and solid compounds in dry octan-1-ol. Chemosphere (2013)
16006,10989.0,,,16007.0,http://msds.chem.ox.ac.uk/,65.0,Nitrosobenzene,O=Nc1ccccc1,academic website
11485,2031471.0,,,11486.0,http://dx.doi.org/10.1021/ci0500132,109.0,"3-bromo-3-(bromomethyl)-1,7,7-trimethylbicyclo[2.2.1]heptan-2-one",BrCC1(Br)C(=O)C2(C)CCC1C2(C)C,Karthikeyan M.; Glen R.C.; Bender A. General melting point prediction based on a diverse compound dataset and artificial neural networks. J. Chem. Inf. Model.; 2005; 45(3); 581-3068
2847,617437.0,,,2848.0,http://www.alfa.com/en/GP100W.pgm?DSSTK=A13193,149.0,2-methoxynicotinic acid,COc1c(cccn1)C(=O)O,Alfa Aesar
23939,68891.0,,,23940.0,http://www.srcinc.com/what-we-do/product.aspx?id=133,14.0,"1,2,6-trimethylnaphthalene",Cc1cc2ccc(C)c(C)c2cc1,PHYSPROP
28553,5145.0,,,28554.0,http://dx.doi.org/10.1016/j.chemosphere.2013.10.095,190.0,Sulfapyridine,C1=CC=NC(=C1)NS(=O)(=O)C2=CC=C(C=C2)N,Abraham M.H. and Acree Jr. W.E. The solubility of liquid and solid compounds in dry octan-1-ol. Chemosphere (2013)
6671,4512351.0,,,6672.0,http://www.alfa.com/en/GP100W.pgm?DSSTK=A11924,2.0,cis-stilbene,c1ccc(cc1)/C=Cc2ccccc2,Alfa Aesar
14717,15471.0,,,14718.0,http://de.wikipedia.org/wiki/Beilsteins_Handbuch_der_Organischen_Chemie,60.0,bis-p-bromophenyl_ether,Brc2ccc(Oc1ccc(Br)cc1)cc2,Beilstein F. K.; Beilsteins Handbuch der Organischen Chemie. Springer; Berlin; 1972.
22163,2162.0,,,22164.0,http://www.srcinc.com/what-we-do/product.aspx?id=133,147.0,atenolol,CC(C)NCC(O)COc1ccc(cc1)CC(N)=O,PHYSPROP
9216,10482455.0,,,9217.0,http://dx.doi.org/10.1021/ci0500132,232.0,4-hydroxy-3-[(1E)-N-(4-hydroxy-3-methylphenyl)ethanimidoyl]-1-phenylquinolin-2(1H)-one,O=C1N(c2ccccc2)c2ccccc2C(O)=C1C(=Nc1ccc(O)c(C)c1)C,Karthikeyan M.; Glen R.C.; Bender A. General melting point prediction based on a diverse compound dataset and artificial neural networks. J. Chem. Inf. Model.; 2005; 45(3); 581-799
26388,10816467.0,,,26389.0,http://www.srcinc.com/what-we-do/product.aspx?id=133,106.5,atropic acid,OC(=O)C(=C)c1ccccc1,PHYSPROP
24584,91903.0,,,24585.0,http://www.srcinc.com/what-we-do/product.aspx?id=133,236.0,d-quercitol,OC1CC(O)C(O)C(O)C1O,PHYSPROP
18254,15801.0,,,18255.0,http://www.srcinc.com/what-we-do/product.aspx?id=133,-107.6,3-methyloctane,CC(CC)CCCCC,PHYSPROP
8583,553166.0,,,8584.0,http://www.alfa.com/en/GP100W.pgm?DSSTK=A13482,22.0,trans-anethole,C/C=C/c1ccc(cc1)OC,Alfa Aesar
7292,10452.0,,,7293.0,http://www.alfa.com/en/GP100W.pgm?DSSTK=B23028,65.0,hexamethylcyclotrisiloxane,C[Si]1(O[Si](O[Si](O1)(C)C)(C)C)C,Alfa Aesar
10399,2036223.0,,,10400.0,http://dx.doi.org/10.1021/ci0500132,81.0,"diethyl N-[(1-{[5-(1,3-dioxo-1,3-dihydro-2H-isoindol-2-yl)pentanoyl]amino}ethyl)(methoxy)phosphoryl]glutamate",[P+]([O-])(OC)(NC(CCC(=O)OCC)C(=O)OCC)C(NC(=O)CCCCN1C(=O)c2ccccc2C1=O)C,Karthikeyan M.; Glen R.C.; Bender A. General melting point prediction based on a diverse compound dataset and artificial neural networks. J. Chem. Inf. Model.; 2005; 45(3); 581-1982
7352,6310.0,,,7353.0,http://www.alfa.com/en/GP100W.pgm?DSSTK=A11017,-85.0,isobutylamine,CC(C)CN,Alfa Aesar
12507,305820.0,,,12508.0,http://dx.doi.org/10.1021/ci0500132,95.0,"4-hydroxy-1,4-diphenylbutan-1-one",O=C(CCC(O)c1ccccc1)c1ccccc1,Karthikeyan M.; Glen R.C.; Bender A. General melting point prediction based on a diverse compound dataset and artificial neural networks. J. Chem. Inf. Model.; 2005; 45(3); 581-4090
25908,8646374.0,,,25909.0,http://www.srcinc.com/what-we-do/product.aspx?id=133,231.5,codeine n-oxide,COc1ccc2C[C@@H]3[C@@H]5C=C[C@H](O)[C@@H]4Oc1c2[C@@]45CC[N+]3(C)[O-],PHYSPROP
20748,7135.0,,,20749.0,http://www.srcinc.com/what-we-do/product.aspx?id=133,31.5,cyclohexanecarboxylic acid,O=C(O)C1CCCCC1,PHYSPROP
15757,475084.0,,,15758.0,http://msds.chem.ox.ac.uk/,39.0,Di-tert-butyl(chloro)silane,CC(C)(C)[SiH](Cl)C(C)(C)C,academic website
18546,14286.0,,,18547.0,http://www.srcinc.com/what-we-do/product.aspx?id=133,154.5,"2,4,5-trihydroxybutyrophenone",Oc1cc(C(=O)CCC)c(O)cc1O,PHYSPROP
16996,2004.0,,,16997.0,http://www.drugbank.ca/drugs/DB00630,234.0,Alendronate,OC(CCCN)(P(O)(=O)O)P(=O)(O)O,DrugBank
24611,93071.0,,,24612.0,http://www.srcinc.com/what-we-do/product.aspx?id=133,121.0,carpaine,O=C1CCCCCCCC3CCC(OC(=O)CCCCCCCC2CCC(O1)C(C)N2)C(C)N3,PHYSPROP
24782,123998.0,,,24783.0,http://www.srcinc.com/what-we-do/product.aspx?id=133,-112.9,"1-pentene, 3-ethyl-2-methyl-",C=C(C)C(CC)CC,PHYSPROP
19041,11889.0,,,19042.0,http://www.srcinc.com/what-we-do/product.aspx?id=133,4.1,1-hexadecene,CCCCCCCCCCCCCCC=C,PHYSPROP
24128,72141.0,,,24129.0,http://www.srcinc.com/what-we-do/product.aspx?id=133,94.0,"benzoylhydrazine, m-methoxy",COc1cc(ccc1)C(=O)NN,PHYSPROP
13884,21106536.0,,,13885.0,http://www.amazon.com/dp/B003XEQTLE,-41.0,ethylene_glycol_diacetate,CC(=O)OCCOC(=O)C,Aldrich Chemical Company; Aldrich Catalog-Handbook of Fine Chemicals; Milwaukee; WI; 1984.
11135,2033191.0,,,11136.0,http://dx.doi.org/10.1021/ci0500132,78.0,methyl 3-(3-hydroxy-4-methoxyphenyl)propanoate,O=C(OC)CCc1ccc(OC)c(O)c1,Karthikeyan M.; Glen R.C.; Bender A. General melting point prediction based on a diverse compound dataset and artificial neural networks. J. Chem. Inf. Model.; 2005; 45(3); 581-2718
12276,717146.0,,,12277.0,http://dx.doi.org/10.1021/ci0500132,268.0,4-Amino-2-oxo-2H-chromene-3-carbaldehyde,O=CC=1C(=O)Oc2ccccc2C=1N,Karthikeyan M.; Glen R.C.; Bender A. General melting point prediction based on a diverse compound dataset and artificial neural networks. J. Chem. Inf. Model.; 2005; 45(3); 581-3859
11764,2030469.0,,,11765.0,http://dx.doi.org/10.1021/ci0500132,122.0,"3-[(4-nitrophenyl)hydrazono]-1,4-diphenylbutan-2-ol",O=[N+]([O-])c1ccc(NN=C(Cc2ccccc2)C(O)Cc2ccccc2)cc1,Karthikeyan M.; Glen R.C.; Bender A. General melting point prediction based on a diverse compound dataset and artificial neural networks. J. Chem. Inf. Model.; 2005; 45(3); 581-3347
4449,13508225.0,,,4450.0,http://www.alfa.com/en/GP100W.pgm?DSSTK=H27420,155.0,"4,5-bis(di-tert-butylphosphino)-9,9-dimethylxanthene",CC1(c2cccc(c2Oc3c1cccc3P(C(C)(C)C)C(C)(C)C)P(C(C)(C)C)C(C)(C)C)C,Alfa Aesar
7988,8596843.0,,,7989.0,http://www.alfa.com/en/GP100W.pgm?DSSTK=A16021,69.0,N-boc-L-isoleucine,CCC(C)[C@@H](C(=O)O)NC(=O)OC(C)(C)C,Alfa Aesar
7678,10694.0,,,7679.0,http://www.alfa.com/en/GP100W.pgm?DSSTK=A11757,32.0,methyl isothiocyanate,CN=C=S,Alfa Aesar
11934,2029722.0,,,11935.0,http://dx.doi.org/10.1021/ci0500132,209.0,"propyl 6-methyl-4-(3-nitrophenyl)-2-thioxo-1,2,3,4-tetrahydropyrimidine-5-carboxylate",S=C1NC(C)=C(C(=O)OCCC)C(N1)c1cccc([N+](=O)[O-])c1,Karthikeyan M.; Glen R.C.; Bender A. General melting point prediction based on a diverse compound dataset and artificial neural networks. J. Chem. Inf. Model.; 2005; 45(3); 581-3517
13168,3.0,,,13169.0,http://www.amazon.com/dp/B003XEQTLE,-2.0,dl-1-amino-2-propanol,CC(O)CN,Aldrich Chemical Company; Aldrich Catalog-Handbook of Fine Chemicals; Milwaukee; WI; 1984.
14120,6691.0,,,14121.0,http://de.wikipedia.org/wiki/Beilsteins_Handbuch_der_Organischen_Chemie,154.0,phthalic_acid_monoamide,OC(=O)c1ccccc1C(N)=O,Beilstein F. K.; Beilsteins Handbuch der Organischen Chemie. Springer; Berlin; 1972.
5859,308146.0,,,5860.0,http://www.alfa.com/en/GP100W.pgm?DSSTK=B23130,116.0,"5-chloro-3-phenyl-2,1-benzisoxazole",c1ccc(cc1)c2c3cc(ccc3no2)Cl,Alfa Aesar
25728,4516718.0,,,25729.0,http://www.srcinc.com/what-we-do/product.aspx?id=133,170.0,"(3-beta)-stigmasta-5,22-dien-3-ol",CC(C)C(CC)/C=C/C(C)C1CCC2C3CC=C4CC(O)CCC4(C)C3CCC12C,PHYSPROP
12110,2029244.0,,,12111.0,http://dx.doi.org/10.1021/ci0500132,160.0,"6-(4-chlorophenyl)-3-(4-methoxyphenyl)-5,6-dihydro[1,2,4]triazolo[3,4-b][1,3,4]thiadiazole",Clc1ccc(cc1)C1Sc2[nH0][nH0]c([nH0]2N1)c1ccc(OC)cc1,Karthikeyan M.; Glen R.C.; Bender A. General melting point prediction based on a diverse compound dataset and artificial neural networks. J. Chem. Inf. Model.; 2005; 45(3); 581-3693
25272,553634.0,,,25273.0,http://www.srcinc.com/what-we-do/product.aspx?id=133,-79.0,"2,4-hexadiene",CC=CC=CC,PHYSPROP
27172,21174672.0,,,27173.0,http://scripts.iucr.org/cgi-bin/paper?ci6293,134.35,"(1S,5R,7R)-1,5-Dichloro-3-methyl-6-methylene-7-phenyl-3-azabicyclo[3.2.0]heptane-2,4-dione",O=C2N(C(=O)[C@]3(Cl)C(=C)[C@@H](c1ccccc1)[C@]23Cl)C,IUCr
17521,27628.0,,,17522.0,http://www.srcinc.com/what-we-do/product.aspx?id=133,90.0,oxadiazon,O=C2OC(=NN2c1cc(OC(C)C)c(Cl)cc1Cl)C(C)(C)C,PHYSPROP
22953,59138.0,,,22954.0,http://www.srcinc.com/what-we-do/product.aspx?id=133,155.0,clospirazine,Clc4ccc5Sc1ccccc1N(CCCN2CCC3(CC2)NC(=O)CS3)c5c4,PHYSPROP
19941,9266.0,,,19942.0,http://www.srcinc.com/what-we-do/product.aspx?id=133,-24.2,"1,2-dichloro-1,2,3,3,4,4-hexafluorocyclobutane",FC1(F)C(F)(F)C(Cl)(F)C1(Cl)F,PHYSPROP
6674,14927694.0,,,6675.0,http://www.alfa.com/en/GP100W.pgm?DSSTK=B25152,286.0,citraconic hydrazide,C/C(=C/C(=O)NN)/C(=O)NN,Alfa Aesar