,csid,donotuse,donotusebecause,key,link,mpC,name,smiles,source
20591,7449.0,,,20592.0,http://www.srcinc.com/what-we-do/product.aspx?id=133,51.0,"1,4-cyclohexanedimethanol",OCC1CCC(CO)CC1,PHYSPROP
9921,4607279.0,,,9922.0,http://dx.doi.org/10.1021/ci0500132,162.0,Ethyl (2Z)-[(4-chlorophenyl)hydrazono](cyano)acetate,Clc1ccc(NN=C(C#N)C(=O)OCC)cc1,Karthikeyan M.; Glen R.C.; Bender A. General melting point prediction based on a diverse compound dataset and artificial neural networks. J. Chem. Inf. Model.; 2005; 45(3); 581-1504
833,454115.0,,,834.0,http://www.alfa.com/en/GP100W.pgm?DSSTK=A12716,59.0,1-(2-nitrophenyl)pyrrole,c1ccc(c(c1)n2cccc2)[N+](=O)[O-],Alfa Aesar
13642,13875432.0,,,13643.0,http://www.amazon.com/dp/B003XEQTLE,34.0,m-chlorophenol,Oc1cc(Cl)ccc1,Aldrich Chemical Company; Aldrich Catalog-Handbook of Fine Chemicals; Milwaukee; WI; 1984.
3414,454112.0,,,3415.0,http://www.alfa.com/en/GP100W.pgm?DSSTK=L10006,97.0,"3',5'-dichloro-2'-hydroxyacetophenone",CC(=O)c1cc(cc(c1O)Cl)Cl,Alfa Aesar
26782,21106155.0,,,26783.0,http://www.srcinc.com/what-we-do/product.aspx?id=133,2.4,p-ethoxyaniline,CCOc1ccc(N)cc1,PHYSPROP
7740,11623.0,,,7741.0,http://www.alfa.com/en/GP100W.pgm?DSSTK=A17743,64.0,m-tolylacetic acid,Cc1cccc(c1)CC(=O)O,Alfa Aesar
6269,30010.0,,,6270.0,http://www.alfa.com/en/GP100W.pgm?DSSTK=A13579,140.0,9-(chloromethyl)anthracene,c1ccc2c(c1)cc3ccccc3c2CCl,Alfa Aesar
23521,63031.0,,,23522.0,http://www.srcinc.com/what-we-do/product.aspx?id=133,11.0,cyclohexanecarbonitrile,N#CC1CCCCC1,PHYSPROP
22119,2354.0,,,22120.0,http://www.srcinc.com/what-we-do/product.aspx?id=133,155.0,bromperidol,Fc1ccc(cc1)C(=O)CCCN2CCC(O)(CC2)c3ccc(Br)cc3,PHYSPROP
7757,91663.0,,,7758.0,http://www.alfa.com/en/GP100W.pgm?DSSTK=L06212,103.0,N-(2-chloroethyl)benzamide,c1ccc(cc1)C(=O)NCCCl,Alfa Aesar
10438,2036152.0,,,10439.0,http://dx.doi.org/10.1021/ci0500132,186.0,"N,N-dimethyl-4-(3-naphthalen-2-yl-1-phenyl-4,5-dihydro-1H-pyrazol-5-yl)aniline",N=1N(c2ccccc2)C(CC=1c1ccc2ccccc2c1)c1ccc(N(C)C)cc1,Karthikeyan M.; Glen R.C.; Bender A. General melting point prediction based on a diverse compound dataset and artificial neural networks. J. Chem. Inf. Model.; 2005; 45(3); 581-2021
11870,2029930.0,,,11871.0,http://dx.doi.org/10.1021/ci0500132,94.0,"2,2,3,3,4,4,5,5,6,6,7,7,8,8,9,9,9-heptadecafluoro-N-(2-nitrophenyl)nonanamide",FC(F)(F)C(F)(F)C(F)(F)C(F)(F)C(F)(F)C(F)(F)C(F)(F)C(F)(F)C(=O)Nc1ccccc1[N+](=O)[O-],Karthikeyan M.; Glen R.C.; Bender A. General melting point prediction based on a diverse compound dataset and artificial neural networks. J. Chem. Inf. Model.; 2005; 45(3); 581-3453
3925,21328678.0,,,3926.0,http://www.alfa.com/en/GP100W.pgm?DSSTK=H32484,126.0,3-fluoro-4-methoxybenzenesulfonamide,COc1ccc(cc1F)S(=O)(=O)N,Alfa Aesar
22831,55095.0,,,22832.0,http://www.srcinc.com/what-we-do/product.aspx?id=133,38.0,methylnitroamine,[O-][N+](=O)CN,PHYSPROP
12412,525308.0,,,12413.0,http://dx.doi.org/10.1021/ci0500132,161.0,"4,4'-Biphenyldiyl diacetate",O=C(Oc1ccc(cc1)c1ccc(OC(=O)C)cc1)C,Karthikeyan M.; Glen R.C.; Bender A. General melting point prediction based on a diverse compound dataset and artificial neural networks. J. Chem. Inf. Model.; 2005; 45(3); 581-3995
27753,7132.0,,,27754.0,http://www.wolframalpha.com/input/?i=acetonphenone,19.5,acetophenone,CC(=O)c1ccccc1,Wolfram Alpha
23518,63022.0,,,23519.0,http://www.srcinc.com/what-we-do/product.aspx?id=133,10.0,1-pentadecyne,C#CCCCCCCCCCCCCC,PHYSPROP
27554,26691.0,,,27555.0,http://www.aapspharmscitech.org/view.asp?art=pt070126,56.0,"2,3,4-trichloronitrobenzene",Clc1ccc([N+]([O-])=O)c(Cl)c1Cl,Sepassi K; Yalkowsky SH; AAPS PharmSciTech; 7(1); E1-E8 (2006)
4894,2759227.0,,,4895.0,http://www.alfa.com/en/GP100W.pgm?DSSTK=H26295,83.0,4-chloro-3-(trifluoromethyl)phenylacetic acid,c1cc(c(cc1CC(=O)O)C(F)(F)F)Cl,Alfa Aesar
23999,69901.0,,,24000.0,http://www.srcinc.com/what-we-do/product.aspx?id=133,85.0,"1,1'-biphenyl, 2,2',3,3',5,5',6,6'-octafluoro-",Fc2c(c1c(F)c(F)cc(F)c1F)c(F)c(F)cc2F,PHYSPROP
3702,14317613.0,,,3703.0,http://www.alfa.com/en/GP100W.pgm?DSSTK=H27268,202.0,3-bromo-4-nitrobenzoic acid,c1cc(c(cc1C(=O)O)Br)[N+](=O)[O-],Alfa Aesar
11010,2033793.0,,,11011.0,http://dx.doi.org/10.1021/ci0500132,100.0,"dimethyl 5-methyl-1-oxo-1,4-dihydro-3H-isochromene-3,3-dicarboxylate",O=C1OC(Cc2c(C)cccc12)(C(=O)OC)C(=O)OC,Karthikeyan M.; Glen R.C.; Bender A. General melting point prediction based on a diverse compound dataset and artificial neural networks. J. Chem. Inf. Model.; 2005; 45(3); 581-2593
15989,18227.0,,,15990.0,http://msds.chem.ox.ac.uk/,96.0,N-Ethyl-4-nitroaniline,CCNc1ccc(cc1)[N+]([O-])=O,academic website
27108,24724831.0,,,27109.0,http://scripts.iucr.org/cgi-bin/paper?na1608,243.85,"1,8-Diphenyl-15,16-dioxatetracyclo[6.6.2.0~2,7~.0~9,14~]hexadeca-2,4,6,9,11,13-hexaene",O2O[C@@]4(c1c(cccc1)[C@]2(c3c4cccc3)c5ccccc5)c6ccccc6,IUCr
18498,14585.0,,,18499.0,http://www.srcinc.com/what-we-do/product.aspx?id=133,113.5,"1,1'-biphenyl, 4-iodo-",Ic1ccc(cc1)c2ccccc2,PHYSPROP
392,10771160.0,,,393.0,http://www.alfa.com/en/GP100W.pgm?DSSTK=A19122,24.0,10-undecenoic acid,C=CCCCCCCCCC(=O)O,Alfa Aesar
28528,5044.0,x,salt and metal,28529.0,http://www.alfa.com/content/msds/USA/A12313.pdf,804.0,sodium chloride,[Na+].[Cl-],Alfa Aesar
12007,2029542.0,,,12008.0,http://dx.doi.org/10.1021/ci0500132,192.0,"3-ethynylandrostane-3,17-diol",OC1CCC2C3CCC4CC(O)(C#C)CCC4(C)C3CCC21C,Karthikeyan M.; Glen R.C.; Bender A. General melting point prediction based on a diverse compound dataset and artificial neural networks. J. Chem. Inf. Model.; 2005; 45(3); 581-3590
2159,2053738.0,,,2160.0,http://www.alfa.com/en/GP100W.pgm?DSSTK=B24901,44.0,2-bromo-5-fluoroaniline,c1cc(c(cc1F)N)Br,Alfa Aesar
12995,5531.0,,,12996.0,http://dx.doi.org/10.1021/ci0500132,178.0,"1H-pyrrole-2-acetic acid, 5-(4-chlorobenzoyl)-1,4-dimethyl-",Clc1ccc(cc1)C(=O)c1[nH0](C)c(cc1C)CC(=O)O,Karthikeyan M.; Glen R.C.; Bender A. General melting point prediction based on a diverse compound dataset and artificial neural networks. J. Chem. Inf. Model.; 2005; 45(3); 581-4578
562,97639.0,,,563.0,http://www.alfa.com/en/GP100W.pgm?DSSTK=B24707,62.0,"1,3-di-n-butyl-2-thiobarbituric acid",CCCCN1C(=O)CC(=O)N(C1=S)CCCC,Alfa Aesar
1124,21169500.0,,,1125.0,http://www.alfa.com/en/GP100W.pgm?DSSTK=B23475,21.0,"2,2-dichloroacetophenone",c1ccc(cc1)C(=O)C(Cl)Cl,Alfa Aesar
14315,62501.0,,,14316.0,http://www.amazon.com/dp/B002IYRJWI,5.0,4-methyldiphenylmethane,Cc2ccc(Cc1ccccc1)cc2,American Petroleum Institute. Research Project 44; Selected Values of Properties of Hydrocarbons and Related Compounds. Texas A & M University; College Station; TX; 1973.
19836,9784.0,,,19837.0,http://www.srcinc.com/what-we-do/product.aspx?id=133,151.0,"2,3-dihydro-1h-isoindol-1-one",O=C1NCc2ccccc12,PHYSPROP
18142,16437.0,,,18143.0,http://www.srcinc.com/what-we-do/product.aspx?id=133,96.0,"acetamide, 2,2,2-trichloro-n-phenyl-",O=C(Nc1ccccc1)C(Cl)(Cl)Cl,PHYSPROP
16650,16736212.0,,,16651.0,http://www.drugbank.ca/drugs/DB00854,198.5,Levorphanol,Oc3ccc4C[C@H]1N(C)CC[C@@]2(CCCC[C@@H]12)c4c3,DrugBank
20342,7916.0,,,20343.0,http://www.srcinc.com/what-we-do/product.aspx?id=133,5.6,1-bromo-n-tetradecane,BrCCCCCCCCCCCCCC,PHYSPROP
96,8277.0,,,97.0,http://www.alfa.com/en/GP100W.pgm?DSSTK=L06696,34.0,1-naphthylacetonitrile,c1ccc2c(c1)cccc2CC#N,Alfa Aesar
16208,59467.0,,,16209.0,http://msds.chem.ox.ac.uk/,36.0,Vinyl stearate,C=COC(=O)CCCCCCCCCCCCCCCCC,academic website
4887,60896.0,,,4888.0,http://www.alfa.com/en/GP100W.pgm?DSSTK=B21200,37.0,4-chloro-3-(trifluoromethyl)aniline,c1cc(c(cc1N)C(F)(F)F)Cl,Alfa Aesar
27884,7694.0,,,27885.0,https://fscimage.fishersci.com/msds/34099.htm,-92.0,butyl butyrate,O=C(OCCCC)CCC,Fisher
9838,4644647.0,,,9839.0,http://dx.doi.org/10.1021/ci0500132,215.0,"4,4'-[(4,6-dinitrobenzene-1,3-diyl)di(E)ethene-2,1-diyl]bis(1,3-benzodioxole)",O=[N+]([O-])c1cc([N+](=O)[O-])c(cc1C=Cc1cccc2OCOc21)C=Cc1cccc2OCOc21,Karthikeyan M.; Glen R.C.; Bender A. General melting point prediction based on a diverse compound dataset and artificial neural networks. J. Chem. Inf. Model.; 2005; 45(3); 581-1421
19762,9992.0,,,19763.0,http://www.srcinc.com/what-we-do/product.aspx?id=133,-78.0,"diazene, dimethyl-",CN=NC,PHYSPROP
12991,5919.0,,,12992.0,http://dx.doi.org/10.1021/ci0500132,77.0,MEGA,O=C(OCC(C)(COC(=O)N)C(C)CC)N,Karthikeyan M.; Glen R.C.; Bender A. General melting point prediction based on a diverse compound dataset and artificial neural networks. J. Chem. Inf. Model.; 2005; 45(3); 581-4574
14271,87953.0,,,14272.0,http://de.wikipedia.org/wiki/Beilsteins_Handbuch_der_Organischen_Chemie,179.0,p-acetoxybenzamide,O=C(C)Oc1ccc(cc1)C(N)=O,Beilstein F. K.; Beilsteins Handbuch der Organischen Chemie. Springer; Berlin; 1972.
9089,10484172.0,,,9090.0,http://dx.doi.org/10.1021/ci0500132,260.0,"3-{(4Z)-4-[2-(4-bromophenyl)hydrazinylidene]-5-oxo-4,5-dihydro-1H-pyrazol-3-yl}-4-hydroxy-1-methylquinolin-2(1H)-one",Brc1ccc(NN=C2C(=O)NN=C2C=2C(=O)N(C)c3ccccc3C=2O)cc1,Karthikeyan M.; Glen R.C.; Bender A. General melting point prediction based on a diverse compound dataset and artificial neural networks. J. Chem. Inf. Model.; 2005; 45(3); 581-670
14531,202898.0,,,14532.0,http://de.wikipedia.org/wiki/Beilsteins_Handbuch_der_Organischen_Chemie,65.0,2-acetoxybiphenyl,O=C(C)Oc2ccccc2c1ccccc1,Beilstein F. K.; Beilsteins Handbuch der Organischen Chemie. Springer; Berlin; 1972.
1586,17429.0,,,1587.0,http://www.alfa.com/en/GP100W.pgm?DSSTK=A13406,-6.0,"2,5-dibromothiophene",c1cc(sc1Br)Br,Alfa Aesar
18858,12515.0,,,18859.0,http://www.srcinc.com/what-we-do/product.aspx?id=133,34.5,"9,10-dihydrophenanthrene",c1ccc2CCc3ccccc3c2c1,PHYSPROP
8580,10466930.0,,,8581.0,http://www.alfa.com/en/GP100W.pgm?DSSTK=H27455,110.0,trans-4-methyl-1-cyclohexanecarboxylic acid,C[C@H]1CC[C@@H](CC1)C(=O)O,Alfa Aesar
8351,13635.0,,,8352.0,http://www.alfa.com/en/GP100W.pgm?DSSTK=A11391,-21.0,pyridine-2-carboxaldehyde,c1ccnc(c1)C=O,Alfa Aesar
856,80863.0,,,857.0,http://www.alfa.com/en/GP100W.pgm?DSSTK=A12398,-79.0,(S)-nicotine,CN1CCC[C@H]1c2cccnc2,Alfa Aesar
8897,2355.0,,,8898.0,http://dx.doi.org/10.1021/ci020280x,128.0,seratrodast,CC1=C(C)C(=O)C(=C(C)C1=O)C(CCCCCC(O)=O)c2ccccc2,Bergstrom C. A. S.; Norinder U.; Luthman K.; Artursson P. Molecular Descriptors Influencing Melting Point and Their Role in Classification of Solid Drugs. J. Chem. Inf. Comput. Sci.; (Article); 2003; 43(4); 1177-1344
6366,4520474.0,,,6367.0,http://www.alfa.com/en/GP100W.pgm?DSSTK=A14230,70.0,alpha-bromocinnamaldehyde,c1ccc(cc1)/C=C(/C=O)Br,Alfa Aesar
21175,6316.0,,,21176.0,http://www.srcinc.com/what-we-do/product.aspx?id=133,-100.0,"1,2-dichloropropane",CC(Cl)CCl,PHYSPROP
21561,10194106.0,x,salt JCB,21562.0,http://www.srcinc.com/what-we-do/product.aspx?id=133,200.0,"scopolamine, hydrochloride",OCC(c1ccccc1)C(=O)OC2CC3N(C)C(C2)C4OC34,PHYSPROP
3123,72831.0,,,3124.0,http://www.alfa.com/en/GP100W.pgm?DSSTK=L04008,147.0,3-(4-bromobenzoyl)propionic acid,c1cc(ccc1C(=O)CCC(=O)O)Br,Alfa Aesar
660,67466.0,,,661.0,http://www.alfa.com/en/GP100W.pgm?DSSTK=A17283,44.0,"1,2-diethoxybenzene",CCOc1ccccc1OCC,Alfa Aesar
12222,1266410.0,,,12223.0,http://dx.doi.org/10.1021/ci0500132,193.0,4-(4-Bromo-benzylidene)-2-phenyl-4H-oxazol-5-one,Brc1ccc(cc1)C=C1N=C(OC1=O)c1ccccc1,Karthikeyan M.; Glen R.C.; Bender A. General melting point prediction based on a diverse compound dataset and artificial neural networks. J. Chem. Inf. Model.; 2005; 45(3); 581-3805
14672,28978.0,,,14673.0,http://www.amazon.com/dp/B002IYRJWI,10.0,tridecylbenzene,CCCCCCCCCCCCCc1ccccc1,American Petroleum Institute. Research Project 44; Selected Values of Properties of Hydrocarbons and Related Compounds. Texas A & M University; College Station; TX; 1973.
28616,8158.0,,,28617.0,http://en.wikipedia.org/wiki/Triethylamine,-114.7,triethylamine,CCN(CC)CC,Wikipedia
6654,21105870.0,,,6655.0,http://www.alfa.com/en/GP100W.pgm?DSSTK=A13025,34.0,cinnamyl alcohol,c1ccc(cc1)/C=C/CO,Alfa Aesar
21070,6520.0,,,21071.0,http://www.srcinc.com/what-we-do/product.aspx?id=133,73.0,diphenyl phthalate,O=C(Oc1ccccc1)c3ccccc3C(=O)Oc2ccccc2,PHYSPROP
25756,4521343.0,,,25757.0,http://www.srcinc.com/what-we-do/product.aspx?id=133,47.5,"benzene, 1,1'-(3-methyl-1-propene-1,3-diyl)bis-",CC(/C=C/c1ccccc1)c2ccccc2,PHYSPROP
24935,218095.0,,,24936.0,http://www.srcinc.com/what-we-do/product.aspx?id=133,236.5,oxandrolone,O=C2CC3CCC1C4CCC(C)(O)C4(C)CCC1C3(C)CO2,PHYSPROP
25836,4942184.0,,,25837.0,http://www.srcinc.com/what-we-do/product.aspx?id=133,182.5,astaxanthin,CC2(C)CC(O)C(=O)C(C)=C2/C=CC(C)=CC=CC(/C)=CC=CC=C(/C)C=CC=C(/C)C=CC1=C(C)C(=O)C(O)CC1(C)C,PHYSPROP
7081,13860074.0,,,7082.0,http://www.alfa.com/en/GP100W.pgm?DSSTK=A14448,29.0,ethyl 3-aminobenzoate,CCOC(=O)c1cccc(c1)N,Alfa Aesar
14024,7673.0,,,14025.0,http://www.questia.com/library/book/physical_properties_of_chemical_compounds_by_robert_rickert_dreisbach.jsp,-31.0,bromobenzene,Brc1ccccc1,Dreisbach R. R. Physical Properties of Chemical Compounds; Vol. I; American Chemical Society; Washington; 1955.
8616,13230.0,,,8617.0,http://www.alfa.com/en/GP100W.pgm?DSSTK=B22063,-170.0,triethoxysilane,CCO[SiH](OCC)OCC,Alfa Aesar
16415,4916.0,,,16416.0,http://www.drugbank.ca/drugs/DB00268,246.5,Ropinirole,CCCN(CCC)CCc1cccc2NC(=O)Cc12,DrugBank
1775,2512047.0,,,1776.0,http://www.alfa.com/en/GP100W.pgm?DSSTK=H26673,69.0,"2,6-difluoro-4-methoxyphenol",COc1cc(c(c(c1)F)O)F,Alfa Aesar
2391,55156.0,,,2392.0,http://www.alfa.com/en/GP100W.pgm?DSSTK=L06623,22.0,2-chloro-5-nitrobenzotrifluoride,c1cc(c(cc1[N+](=O)[O-])C(F)(F)F)Cl,Alfa Aesar
21539,5133.0,,,21540.0,http://www.srcinc.com/what-we-do/product.aspx?id=133,191.5,sulfanilyl guanadine,Nc1ccc(cc1)S(=O)(=O)NC(=N)N,PHYSPROP
12930,11446.0,,,12931.0,http://dx.doi.org/10.1021/ci0500132,108.0,"9,10-dihydroanthracene",c1ccc2Cc3ccccc3Cc2c1,Karthikeyan M.; Glen R.C.; Bender A. General melting point prediction based on a diverse compound dataset and artificial neural networks. J. Chem. Inf. Model.; 2005; 45(3); 581-4513
4582,518003.0,,,4583.0,http://www.alfa.com/en/GP100W.pgm?DSSTK=B23463,160.0,4-amino-3-nitrobenzonitrile,c1cc(c(cc1C#N)[N+](=O)[O-])N,Alfa Aesar
13959,7169.0,,,13960.0,http://www.amazon.com/dp/B003XEQTLE,59.0,m-nitrobenzaldehyde,O=[N+]([O-])c1cc(C=O)ccc1,Aldrich Chemical Company; Aldrich Catalog-Handbook of Fine Chemicals; Milwaukee; WI; 1984.
18285,15626.0,,,18286.0,http://www.srcinc.com/what-we-do/product.aspx?id=133,175.0,"4,4'-dimethoxybiphenyl",COc1ccc(cc1)c2ccc(OC)cc2,PHYSPROP
20135,8520.0,,,20136.0,http://www.srcinc.com/what-we-do/product.aspx?id=133,-76.0,decamethyltetrasiloxane,C[Si](C)(C)O[Si](C)(C)O[Si](C)(C)O[Si](C)(C)C,PHYSPROP
1946,20500.0,,,1947.0,http://www.alfa.com/en/GP100W.pgm?DSSTK=L06896,184.0,2-amino-4-chloro-6-methylpyrimidine,Cc1cc(nc(n1)N)Cl,Alfa Aesar
9158,10483386.0,,,9159.0,http://dx.doi.org/10.1021/ci0500132,201.0,"1-(3,5-ditert-butyl-4-hydroxyphenyl)ethanone oxime",ON=C(C)c1cc(c(O)c(c1)C(C)(C)C)C(C)(C)C,Karthikeyan M.; Glen R.C.; Bender A. General melting point prediction based on a diverse compound dataset and artificial neural networks. J. Chem. Inf. Model.; 2005; 45(3); 581-741
5123,516051.0,,,5124.0,http://www.alfa.com/en/GP100W.pgm?DSSTK=B25340,216.0,4-fluoro-3-hydroxybenzoic acid,c1cc(c(cc1C(=O)O)O)F,Alfa Aesar
8848,28460.0,,,8849.0,http://dx.doi.org/10.1021/ci020280x,126.0,lofexidine,CC(Oc1c(Cl)cccc1Cl)C2=NCCN2,Bergstrom C. A. S.; Norinder U.; Luthman K.; Artursson P. Molecular Descriptors Influencing Melting Point and Their Role in Classification of Solid Drugs. J. Chem. Inf. Comput. Sci.; (Article); 2003; 43(4); 1177-1295
2581,3002912.0,,,2582.0,http://www.alfa.com/en/GP100W.pgm?DSSTK=H26729,49.0,2-fluoro-3-methoxybenzaldehyde,COc1cccc(c1F)C=O,Alfa Aesar
16456,8988.0,,,16457.0,http://www.drugbank.ca/drugs/DB00566,193.0,Succimer,O=C(O)C(S)C(S)C(O)=O,DrugBank
18818,12697.0,,,18819.0,http://www.srcinc.com/what-we-do/product.aspx?id=133,43.5,benzyl phenyl sulfide,C(Sc1ccccc1)c2ccccc2,PHYSPROP
9310,7855453.0,,,9311.0,http://dx.doi.org/10.1021/ci0500132,179.0,4-[(3Z)-1-(hydroxyamino)-3-(hydroxyimino)-3-phenylpropyl]aniline,ON=C(CC(NO)c1ccc(N)cc1)c1ccccc1,Karthikeyan M.; Glen R.C.; Bender A. General melting point prediction based on a diverse compound dataset and artificial neural networks. J. Chem. Inf. Model.; 2005; 45(3); 581-893
23313,62201.0,,,23314.0,http://www.srcinc.com/what-we-do/product.aspx?id=133,-161.5,trimethyl boron,CB(C)C,PHYSPROP
3175,2057600.0,,,3176.0,http://www.alfa.com/en/GP100W.pgm?DSSTK=B23073,54.0,3-(trifluoromethoxy)phenylacetic acid,c1cc(cc(c1)OC(F)(F)F)CC(=O)O,Alfa Aesar
28587,6842.0,,,28588.0,http://chemspider.com/6842,159.3,thianthrene,S1c3c(Sc2c1cccc2)cccc3,EPISuite-ChemSpider
28449,10181341.0,,,28450.0,http://webbook.nist.gov/cgi/cbook.cgi?ID=C103822&Units=SI&Mask=7,76.0,phenylacetic acid,O=C(O)Cc1ccccc1,NIST Web Book
18805,12794.0,,,18806.0,http://www.srcinc.com/what-we-do/product.aspx?id=133,210.5,"n,n-diethyl-2-chloroethylamine",CCN(CC)CCCl,PHYSPROP
26715,20171809.0,,,26716.0,http://www.srcinc.com/what-we-do/product.aspx?id=133,86.0,amitraz,Cc2ccc(/N=CN(C)/C=N/c1ccc(C)cc1C)c(C)c2,PHYSPROP
26027,10438869.0,,,26028.0,http://www.srcinc.com/what-we-do/product.aspx?id=133,37.5,"1,2,4-triazole,1-(4-butylbenzyl)-",CCCCc2ccc(Cn1cncn1)cc2,PHYSPROP
17337,1265915.0,,,17338.0,http://dx.doi.org/10.1021/ci700307p,185.3,sulindac,CS(=O)c1ccc(cc1)/C=C3c2ccc(F)cc2C(CC(=O)O)=C3C,Hughes LD; Palmer DS; Nigsch F and Mitchell JBO. 2008 Why are some properties more difficult to predict than others? A study of QSPR models of solubility; melting point and LogP. J. Chem. Inf. Model. 2008. 48 (1). pp 220?485
25952,10188566.0,,,25953.0,http://www.srcinc.com/what-we-do/product.aspx?id=133,87.5,o-methoxyacetanilide,COc1ccccc1NC(C)=O,PHYSPROP
3967,510930.0,,,3968.0,http://www.alfa.com/en/GP100W.pgm?DSSTK=L19324,69.0,3-fluorosalicylaldehyde,c1cc(c(c(c1)F)O)C=O,Alfa Aesar
279,71437.0,,,280.0,http://www.alfa.com/en/GP100W.pgm?DSSTK=A14893,119.0,1-bromoadamantane,C1C2CC3CC1CC(C2)(C3)Br,Alfa Aesar
2695,124930.0,,,2696.0,http://www.alfa.com/en/GP100W.pgm?DSSTK=L08980,191.0,2-hydroxy-3-methylbenzhydrazide,Cc1cccc(c1O)C(=O)NN,Alfa Aesar
9801,4644755.0,,,9802.0,http://dx.doi.org/10.1021/ci0500132,240.0,"5-(4-Nitro-phenyl)-2-phenyl-4-(phenyl-hydrazono)-2,4-dihydro-pyrazol-3-one",O=[N+]([O-])c1ccc(cc1)C1=NN(c2ccccc2)C(=O)C1=NNc1ccccc1,Karthikeyan M.; Glen R.C.; Bender A. General melting point prediction based on a diverse compound dataset and artificial neural networks. J. Chem. Inf. Model.; 2005; 45(3); 581-1384
16322,4663.0,,,16323.0,http://www.drugbank.ca/drugs/DB01132,183.5,Pioglitazone,CCc1ccc(nc1)CCOc3ccc(CC2SC(=O)NC2=O)cc3,DrugBank
18428,14889.0,,,18429.0,http://www.srcinc.com/what-we-do/product.aspx?id=133,-15.0,"thiazole, 5-ethenyl-4-methyl-",C=Cc1scnc1C,PHYSPROP
18748,13053.0,,,18749.0,http://www.srcinc.com/what-we-do/product.aspx?id=133,-20.6,4-ethylacetophenone,CCc1ccc(cc1)C(C)=O,PHYSPROP
23684,64843.0,,,23685.0,http://www.srcinc.com/what-we-do/product.aspx?id=133,136.0,chlorphenoxamide,ClC(Cl)C(=O)N(CCO)Cc1ccc(cc1)Oc2ccc(cc2)[N+]([O-])=O,PHYSPROP
28482,7954.0,,,28483.0,http://www.journalarchive.jst.go.jp/jnlpdf.php?cdjournal=bcsj1926&cdvol=42&noissue=2&startpage=582&lang=en&from=jnlabstract,-185.2,Propylene,C=CC,Oka T; Sato S Bulletin of the Chemical Society of Japan; 42(2); 582 (1969)
10742,2034442.0,,,10743.0,http://dx.doi.org/10.1021/ci0500132,129.0,4-methyl-N-(4-pentylphenyl)benzamide,O=C(Nc1ccc(cc1)CCCCC)c1ccc(C)cc1,Karthikeyan M.; Glen R.C.; Bender A. General melting point prediction based on a diverse compound dataset and artificial neural networks. J. Chem. Inf. Model.; 2005; 45(3); 581-2325
19479,10897.0,,,19480.0,http://www.srcinc.com/what-we-do/product.aspx?id=133,91.5,3-aminoquinoline,Nc1cc2ccccc2nc1,PHYSPROP
27174,2999193.0,,,27175.0,http://scripts.iucr.org/cgi-bin/paper?sj2185,135.85,N-(Diphenylmethyl)formamide,O=CNC(c1ccccc1)c2ccccc2,IUCr
14493,19663.0,,,14494.0,http://www.amazon.com/dp/B003XEQTLE,237.0,3-chloro-2-nitrobenzoic_acid,O=[N+]([O-])c1c(cccc1Cl)C(=O)O,Aldrich Chemical Company; Aldrich Catalog-Handbook of Fine Chemicals; Milwaukee; WI; 1984.