,csid,donotuse,donotusebecause,key,link,mpC,name,smiles,source
969,2018938.0,,,970.0,http://www.alfa.com/en/GP100W.pgm?DSSTK=B25230,70.0,2-(4-chlorophenylthio)-6-fluorobenzonitrile,c1cc(c(c(c1)Sc2ccc(cc2)Cl)C#N)F,Alfa Aesar
27499,61765.0,,,27500.0,http://www.chemblink.com/products/118-93-4.htm,5.0,2-acetylphenol,O=C(CO)c1ccccc1,ChemBlink
26816,21106513.0,,,26817.0,http://www.srcinc.com/what-we-do/product.aspx?id=133,45.0,"1,3-dichloroacetone",ClCC(=O)CCl,PHYSPROP
22539,33188.0,,,22540.0,http://www.srcinc.com/what-we-do/product.aspx?id=133,-50.0,"cyclohexanol, 4-(1,1-dimethylethyl)-, acetate",O=C(C)OC1CCC(CC1)C(C)(C)C,PHYSPROP
12881,21733.0,,,12882.0,http://dx.doi.org/10.1021/ci0500132,32.0,"1,1'-(1,3-Phenylene)diethanone",O=C(C)c1cccc(c1)C(=O)C,Karthikeyan M.; Glen R.C.; Bender A. General melting point prediction based on a diverse compound dataset and artificial neural networks. J. Chem. Inf. Model.; 2005; 45(3); 581-4464
25350,638258.0,,,25351.0,http://www.srcinc.com/what-we-do/product.aspx?id=133,139.0,"hydrazinecarbothioamide, n-phenyl-",S=C(Nc1ccccc1)NN,PHYSPROP
13451,32553.0,,,13452.0,http://www.amazon.com/dp/B002IYRJWI,-22.0,"1,1,2-trimethylcyclopentane",CC1CCCC1(C)C,American Petroleum Institute. Research Project 44; Selected Values of Properties of Hydrocarbons and Related Compounds. Texas A & M University; College Station; TX; 1973.
3389,107215.0,,,3390.0,http://www.alfa.com/en/GP100W.pgm?DSSTK=A19614,61.0,"3',5'-dibenzyloxyacetophenone",CC(=O)c1cc(cc(c1)OCc2ccccc2)OCc3ccccc3,Alfa Aesar
10879,2033992.0,,,10880.0,http://dx.doi.org/10.1021/ci0500132,269.0,"5,6,11,12-tetrahydro-5a,11a-(methanooxymethano)tetracene-13,15-dione",O=C1OC(=O)C23Cc4ccccc4CC13Cc1ccccc1C2,Karthikeyan M.; Glen R.C.; Bender A. General melting point prediction based on a diverse compound dataset and artificial neural networks. J. Chem. Inf. Model.; 2005; 45(3); 581-2462
2203,2053715.0,,,2204.0,http://www.alfa.com/en/GP100W.pgm?DSSTK=L18581,109.0,2-bromobenzeneboronic acid,B(c1ccccc1Br)(O)O,Alfa Aesar
23415,62542.0,,,23416.0,http://www.srcinc.com/what-we-do/product.aspx?id=133,96.0,"benzenamine, n-hydroxy-4-methyl-",Cc1ccc(NO)cc1,PHYSPROP
25891,7945036.0,,,25892.0,http://www.srcinc.com/what-we-do/product.aspx?id=133,149.0,"tepa,n-benzyliden-n-p-no2-ph-hydrazin1yl",O=P(N(/N=C/c1ccccc1)c2ccc(cc2)[N+]([O-])=O)(N3CC3)N4CC4,PHYSPROP
26853,21106583.0,,,26854.0,http://www.srcinc.com/what-we-do/product.aspx?id=133,-45.0,bis (2-ethoxy ethyl) ether,CCOCCOCCOCC,PHYSPROP
10229,2083073.0,,,10230.0,http://dx.doi.org/10.1021/ci0500132,156.0,"5-(2,4-dichlorobenzylidene)-2,2-dimethyl-1,3-dioxane-4,6-dione",Clc1ccc(C=C2C(=O)OC(OC2=O)(C)C)c(Cl)c1,Karthikeyan M.; Glen R.C.; Bender A. General melting point prediction based on a diverse compound dataset and artificial neural networks. J. Chem. Inf. Model.; 2005; 45(3); 581-1812
26551,13856959.0,,,26552.0,http://www.srcinc.com/what-we-do/product.aspx?id=133,21.0,benzyl benzoate,O=C(OCc1ccccc1)c2ccccc2,PHYSPROP
11525,2031243.0,,,11526.0,http://dx.doi.org/10.1021/ci0500132,175.0,3-[(Z)-{3-[(phenylcarbonyl)oxy]phenyl}-NNO-azoxy]phenyl benzoate,O=C(Oc1cccc(N=[N+]([O-])c2cccc(OC(=O)c3ccccc3)c2)c1)c1ccccc1,Karthikeyan M.; Glen R.C.; Bender A. General melting point prediction based on a diverse compound dataset and artificial neural networks. J. Chem. Inf. Model.; 2005; 45(3); 581-3108
25877,7845534.0,,,25878.0,http://www.srcinc.com/what-we-do/product.aspx?id=133,206.0,nifurfoline,[O-][N+](=O)c1ccc(o1)/C=N/N3CC(=O)N(CN2CCOCC2)C3=O,PHYSPROP
18594,13854.0,,,18595.0,http://www.srcinc.com/what-we-do/product.aspx?id=133,46.0,4-aminobenzenethiol,Nc1ccc(S)cc1,PHYSPROP
10681,2034687.0,,,10682.0,http://dx.doi.org/10.1021/ci0500132,315.0,"9,9-Dimethyl-12-phenyl-8,9,10,12-tetrahydro-7H-benzo[a]acridin-11-one",O=C1CC(C)(C)CC=2Nc3ccc4ccccc4c3C(c3ccccc3)C1=2,Karthikeyan M.; Glen R.C.; Bender A. General melting point prediction based on a diverse compound dataset and artificial neural networks. J. Chem. Inf. Model.; 2005; 45(3); 581-2264
4168,125139.0,,,4169.0,http://www.alfa.com/en/GP100W.pgm?DSSTK=A10911,134.0,3-oxo-3-(2-thienyl)propionitrile,c1cc(sc1)C(=O)CC#N,Alfa Aesar
24892,197494.0,,,24893.0,http://www.srcinc.com/what-we-do/product.aspx?id=133,132.0,allocholesterol,CC(C)CCCC(C)C1CCC2C3CCC4=CC(O)CCC4(C)C3CCC12C,PHYSPROP
9763,4645004.0,,,9764.0,http://dx.doi.org/10.1021/ci0500132,51.0,"(2E)-1,3-bis(4-fluorophenyl)but-2-en-1-one",Fc1ccc(cc1)C(=O)C=C(C)c1ccc(F)cc1,Karthikeyan M.; Glen R.C.; Bender A. General melting point prediction based on a diverse compound dataset and artificial neural networks. J. Chem. Inf. Model.; 2005; 45(3); 581-1346
23031,60006.0,,,23032.0,http://www.srcinc.com/what-we-do/product.aspx?id=133,72.5,"benzene, 1,4-dimethoxy-2-nitro-",COc1ccc(cc1[N+]([O-])=O)OC,PHYSPROP
24411,82873.0,,,24412.0,http://www.srcinc.com/what-we-do/product.aspx?id=133,78.0,thiazopyr,CC(C)Cc1c(c(nc(C(F)F)c1C(=O)OC)C(F)(F)F)C2=NCCS2,PHYSPROP
202,21170937.0,,,203.0,http://www.alfa.com/en/GP100W.pgm?DSSTK=A14138,-17.0,1-ethyl-4-iodobenzene,CCc1ccc(cc1)I,Alfa Aesar
2363,136966.0,,,2364.0,http://www.alfa.com/en/GP100W.pgm?DSSTK=L19284,40.0,2-chloro-5-(chloromethyl)pyridine,c1cc(ncc1CCl)Cl,Alfa Aesar
22823,55074.0,,,22824.0,http://www.srcinc.com/what-we-do/product.aspx?id=133,24.0,"bicyclo 3.1.1 hept-3-en-2-ol, 4,6,6-trimethyl-,",CC2(C)C1CC2C(O)C=C1C,PHYSPROP
12585,231675.0,,,12586.0,http://dx.doi.org/10.1021/ci0500132,133.0,Pentamethylbenzaldehyde,O=Cc1c(C)c(C)c(C)c(C)c1C,Karthikeyan M.; Glen R.C.; Bender A. General melting point prediction based on a diverse compound dataset and artificial neural networks. J. Chem. Inf. Model.; 2005; 45(3); 581-4168
8070,8538.0,,,8071.0,http://www.alfa.com/en/GP100W.pgm?DSSTK=L11569,-57.0,N-hexyl methacrylate,CCCCCCOC(=O)C(=C)C,Alfa Aesar
7664,7847.0,,,7665.0,http://www.alfa.com/en/GP100W.pgm?DSSTK=A12492,5.0,methyl dodecanoate,CCCCCCCCCCCC(=O)OC,Alfa Aesar
20442,7751.0,,,20443.0,http://www.srcinc.com/what-we-do/product.aspx?id=133,3.0,isopropyl myristate,CC(C)OC(=O)CCCCCCCCCCCCC,PHYSPROP
26017,10438514.0,,,26018.0,http://www.srcinc.com/what-we-do/product.aspx?id=133,106.0,"acetamide, 2-(benzoyloxy)-n-ethyl-",CCNC(=O)COC(=O)c1ccccc1,PHYSPROP
2845,63180.0,,,2846.0,http://www.alfa.com/en/GP100W.pgm?DSSTK=A12847,89.0,2-methoxyhydroquinone,COc1cc(ccc1O)O,Alfa Aesar
7789,8219816.0,,,7790.0,http://www.alfa.com/en/GP100W.pgm?DSSTK=H32521,178.0,N-(4'-methoxy-4-biphenylylsulfonyl)valine,CC(C)C(C(=O)O)NS(=O)(=O)c1ccc(cc1)c2ccc(cc2)OC,Alfa Aesar
13951,11591.0,,,13952.0,http://www.amazon.com/dp/B003XEQTLE,247.0,p-formyl_benzoic_acid,OC(=O)c1ccc(C=O)cc1,Aldrich Chemical Company; Aldrich Catalog-Handbook of Fine Chemicals; Milwaukee; WI; 1984.
836,1306.0,,,837.0,http://www.alfa.com/en/GP100W.pgm?DSSTK=A15819,37.0,1-(2-methoxyphenyl)piperazine,COc1ccccc1N2CCNCC2,Alfa Aesar
14251,60462.0,,,14252.0,http://www.amazon.com/dp/B003XEQTLE,40.0,p-diethylaminobenzaldehyde,CCN(CC)c1ccc(cc1)C=O,Aldrich Chemical Company; Aldrich Catalog-Handbook of Fine Chemicals; Milwaukee; WI; 1984.
14278,10287.0,,,14279.0,http://www.amazon.com/dp/B002IYRJWI,8.0,"1,1-diphenylethene",C=C(c1ccccc1)c2ccccc2,American Petroleum Institute. Research Project 44; Selected Values of Properties of Hydrocarbons and Related Compounds. Texas A & M University; College Station; TX; 1973.
10739,2034445.0,,,10740.0,http://dx.doi.org/10.1021/ci0500132,113.0,4-methyl-N-(4-octylphenyl)benzamide,O=C(Nc1ccc(cc1)CCCCCCCC)c1ccc(C)cc1,Karthikeyan M.; Glen R.C.; Bender A. General melting point prediction based on a diverse compound dataset and artificial neural networks. J. Chem. Inf. Model.; 2005; 45(3); 581-2322
1587,11511.0,,,1588.0,http://www.alfa.com/en/GP100W.pgm?DSSTK=A19418,6.0,"2,5-dibromotoluene",Cc1cc(ccc1Br)Br,Alfa Aesar
15514,5363.0,,,15515.0,http://msds.chem.ox.ac.uk/,57.0,"5-Chloro-2-(2,4-dichlorophenoxy)phenol",Clc2cc(Cl)ccc2Oc1ccc(Cl)cc1O,academic website
22887,56145.0,,,22888.0,http://www.srcinc.com/what-we-do/product.aspx?id=133,169.0,scilliroside,CC(=O)OC5CC2(O)C(CCC1(C)C(CCC12O)C=3C=CC(=O)OC=3)C6(C)CCC(OC4OC(CO)C(O)C(O)C4O)C=C56,PHYSPROP
353,377795.0,,,354.0,http://www.alfa.com/en/GP100W.pgm?DSSTK=L08434,180.0,"1-benzyl-1,2,3-triazole-4,5-dicarboxylic acid",c1ccc(cc1)Cn2c(c(nn2)C(=O)O)C(=O)O,Alfa Aesar
760,17619.0,,,761.0,http://www.alfa.com/en/GP100W.pgm?DSSTK=B23697,-78.0,"1,1,3,3-tetramethyldisiloxane",C[SiH](C)O[SiH](C)C,Alfa Aesar
15585,6751.0,,,15586.0,http://msds.chem.ox.ac.uk/,156.5,Anthracen-9(10H)-one,O=C1c3ccccc3Cc2ccccc12,academic website
23596,63660.0,,,23597.0,http://www.srcinc.com/what-we-do/product.aspx?id=133,-3.0,"2,4-dimethylsulfolane",CC1CC(C)CS1(=O)=O,PHYSPROP
26516,13846040.0,,,26517.0,http://www.srcinc.com/what-we-do/product.aspx?id=133,-40.1,perfluorocyclobutane,FC1(F)C(F)(F)C(F)(F)C1(F)F,PHYSPROP
12291,699329.0,,,12292.0,http://dx.doi.org/10.1021/ci0500132,36.0,4-[5-Methoxy-3-(5-methyl-furan-2-yl)-benzofuran-2-yl]-butan-2-one,O=C(C)CCc1oc2ccc(OC)cc2c1c1oc(C)cc1,Karthikeyan M.; Glen R.C.; Bender A. General melting point prediction based on a diverse compound dataset and artificial neural networks. J. Chem. Inf. Model.; 2005; 45(3); 581-3874
9627,4645523.0,,,9628.0,http://dx.doi.org/10.1021/ci0500132,232.0,"(5Z)-5-[(6-chloro-4-oxo-4H-chromen-3-yl)methylidene]-3-ethyl-2-thioxo-1,3-thiazolidin-4-one",Clc1ccc2OC=C(C=C3SC(=S)N(CC)C3=O)C(=O)c2c1,Karthikeyan M.; Glen R.C.; Bender A. General melting point prediction based on a diverse compound dataset and artificial neural networks. J. Chem. Inf. Model.; 2005; 45(3); 581-1210
21957,3116.0,,,21958.0,http://www.srcinc.com/what-we-do/product.aspx?id=133,222.0,enoxacin,O=C(O)C2=CN(CC)c1nc(c(F)cc1C2=O)N3CCNCC3,PHYSPROP
10867,2034006.0,,,10868.0,http://dx.doi.org/10.1021/ci0500132,64.0,3-benzylisoquinoline,[nH0]1cc2ccccc2cc1Cc1ccccc1,Karthikeyan M.; Glen R.C.; Bender A. General melting point prediction based on a diverse compound dataset and artificial neural networks. J. Chem. Inf. Model.; 2005; 45(3); 581-2450
12612,211943.0,,,12613.0,http://dx.doi.org/10.1021/ci0500132,148.0,1-carbamoyl-3-methylpyrazole,O=C(N)[nH0]1[nH0]c(C)cc1,Karthikeyan M.; Glen R.C.; Bender A. General melting point prediction based on a diverse compound dataset and artificial neural networks. J. Chem. Inf. Model.; 2005; 45(3); 581-4195
14067,13869655.0,,,14068.0,http://www.amazon.com/dp/B003XEQTLE,50.0,"2,5-dichloroaniline",Clc1ccc(Cl)c(N)c1,Aldrich Chemical Company; Aldrich Catalog-Handbook of Fine Chemicals; Milwaukee; WI; 1984.
18272,15700.0,,,18273.0,http://www.srcinc.com/what-we-do/product.aspx?id=133,128.0,dicryl,Clc1ccc(NC(=O)C(=C)C)cc1Cl,PHYSPROP
24005,70030.0,,,24006.0,http://www.srcinc.com/what-we-do/product.aspx?id=133,148.0,"2,3,6-trichlorophenoxyacetic acid",Clc1c(OCC(=O)O)c(Cl)ccc1Cl,PHYSPROP
14668,11145.0,,,14669.0,http://www.amazon.com/dp/B002IYRJWI,28.0,octadecane,CCCCCCCCCCCCCCCCCC,American Petroleum Institute. Research Project 44; Selected Values of Properties of Hydrocarbons and Related Compounds. Texas A & M University; College Station; TX; 1973.
8495,12161.0,,,8496.0,http://www.alfa.com/en/GP100W.pgm?DSSTK=L09716,5.0,tetramethoxysilane,CO[Si](OC)(OC)OC,Alfa Aesar
22747,46141.0,,,22748.0,http://www.srcinc.com/what-we-do/product.aspx?id=133,56.0,haloxyfop-methyl,O=C(OC)C(C)Oc1ccc(cc1)Oc2ncc(cc2Cl)C(F)(F)F,PHYSPROP
7149,2078349.0,,,7150.0,http://www.alfa.com/en/GP100W.pgm?DSSTK=A14723,28.0,ethyl 6-chloronicotinate,CCOC(=O)c1ccc(nc1)Cl,Alfa Aesar
5099,2063472.0,,,5100.0,http://www.alfa.com/en/GP100W.pgm?DSSTK=H26627,76.0,4-fluoro-2-methoxybenzonitrile,COc1cc(ccc1C#N)F,Alfa Aesar
20877,6886.0,,,20878.0,http://www.srcinc.com/what-we-do/product.aspx?id=133,94.0,mcpp,Clc1cc(C)c(OC(C)C(=O)O)cc1,PHYSPROP
408,59862.0,,,409.0,http://www.alfa.com/en/GP100W.pgm?DSSTK=A18856,301.0,"1,8-naphthalimide",c1cc2cccc3c2c(c1)C(=O)NC3=O,Alfa Aesar
746,11269.0,,,747.0,http://www.alfa.com/en/GP100W.pgm?DSSTK=A11182,217.0,"1,1'-bi(2-naphthol)",c1ccc2c(c1)ccc(c2c3c4ccccc4ccc3O)O,Alfa Aesar
18412,14939.0,,,18413.0,http://www.srcinc.com/what-we-do/product.aspx?id=133,-26.2,"thiophene, 2,3,4-trimethyl-",Cc1scc(C)c1C,PHYSPROP
16402,2611.0,,,16403.0,http://www.drugbank.ca/drugs/DB00475,236.2,Chlordiazepoxide,ClC=1C=CC2=N/C(CN(O)C(=C2C=1)c3ccccc3)=NC,DrugBank
4767,2053760.0,,,4768.0,http://www.alfa.com/en/GP100W.pgm?DSSTK=B25475,212.0,4-bromo-3-fluorobenzoic acid,c1cc(c(cc1C(=O)O)F)Br,Alfa Aesar
13342,9649.0,,,13343.0,http://www.amazon.com/dp/B002IYRJWI,-25.0,"2,2,3-trimethylbutane",CC(C)C(C)(C)C,American Petroleum Institute. Research Project 44; Selected Values of Properties of Hydrocarbons and Related Compounds. Texas A & M University; College Station; TX; 1973.
26430,13835235.0,,,26431.0,http://www.srcinc.com/what-we-do/product.aspx?id=133,-13.0,ethylene glycol,OCCO,PHYSPROP
18643,13622.0,,,18644.0,http://www.srcinc.com/what-we-do/product.aspx?id=133,-12.0,1-tetradecene,CCCCCCCCCCCCC=C,PHYSPROP
15133,2929.0,,,15134.0,http://msds.chem.ox.ac.uk/,170.0,"2,2'-Methylenebis(4-chlorophenol)",Oc2ccc(Cl)cc2Cc1cc(Cl)ccc1O,academic website
9203,10482610.0,,,9204.0,http://dx.doi.org/10.1021/ci0500132,193.0,"N,N'-dihydroxy-1,4-diphenylbutane-2,3-diimine",ON=C(Cc1ccccc1)C(=NO)Cc1ccccc1,Karthikeyan M.; Glen R.C.; Bender A. General melting point prediction based on a diverse compound dataset and artificial neural networks. J. Chem. Inf. Model.; 2005; 45(3); 581-786
9350,5497662.0,,,9351.0,http://dx.doi.org/10.1021/ci0500132,138.0,(2E)-3-[2-(4-nitrophenyl)ethoxy]-2-phenylbut-2-enenitrile,O=[N+]([O-])c1ccc(cc1)CCOC(C)=C(C#N)c1ccccc1,Karthikeyan M.; Glen R.C.; Bender A. General melting point prediction based on a diverse compound dataset and artificial neural networks. J. Chem. Inf. Model.; 2005; 45(3); 581-933
27075,21132197.0,,,27076.0,http://scripts.iucr.org/cgi-bin/paper?cv6137,156.85,"3-[2,2-Bis(4-fluorophenyl)vinyl]-4-(dimethylamino)-1-phenyl-1H-pyrrole-2,5-dione",Fc1ccc(cc1)/C(c2ccc(F)cc2)=CC=4C(=O)N(c3ccccc3)C(=O)C=4N(C)C,IUCr
14122,441895.0,,,14123.0,http://de.wikipedia.org/wiki/Beilsteins_Handbuch_der_Organischen_Chemie,300.0,terephthalic_acid_monoamide,OC(=O)c1ccc(cc1)C(N)=O,Beilstein F. K.; Beilsteins Handbuch der Organischen Chemie. Springer; Berlin; 1972.
1840,10919.0,,,1841.0,http://www.alfa.com/en/GP100W.pgm?DSSTK=A10229,186.0,"2,7-dihydroxynaphthalene",c1cc(cc2c1ccc(c2)O)O,Alfa Aesar
8587,1267328.0,,,8588.0,http://www.alfa.com/en/GP100W.pgm?DSSTK=B25503,19.0,trans-cinnamonitrile,c1ccc(cc1)/C=C/C#N,Alfa Aesar
10043,3872210.0,,,10044.0,http://dx.doi.org/10.1021/ci0500132,118.0,"17-[1-(acetyloxy)ethyl]-5,10,17-trimethylgon-13-en-3-yl acetate",O=C(OC1CCC2(C)C3CCC4=C(CCC4(C)C(OC(=O)C)C)C3CCC2(C)C1)C,Karthikeyan M.; Glen R.C.; Bender A. General melting point prediction based on a diverse compound dataset and artificial neural networks. J. Chem. Inf. Model.; 2005; 45(3); 581-1626
3528,599518.0,,,3529.0,http://www.alfa.com/en/GP100W.pgm?DSSTK=B23834,60.0,"3,5-di-tert-butyl-2-hydroxybenzaldehyde",CC(C)(C)c1cc(c(c(c1)C(C)(C)C)O)C=O,Alfa Aesar
23142,60975.0,,,23143.0,http://www.srcinc.com/what-we-do/product.aspx?id=133,186.5,"5-thiazolecarboxylic acid, 2-amino-4-(trifluorom",FC(F)(F)c1nc(N)sc1C(=O)OCC,PHYSPROP
25963,10243171.0,,,25964.0,http://www.srcinc.com/what-we-do/product.aspx?id=133,152.0,4-methylacetanilide,O=C(C)Nc1ccc(C)cc1,PHYSPROP
11465,2031582.0,,,11466.0,http://dx.doi.org/10.1021/ci0500132,236.0,"[(1E,3Z)-1,2,3,4-tetrabromo-4-phenylbuta-1,3-dien-1-yl]benzene",BrC(c1ccccc1)=C(Br)C(Br)=C(Br)c1ccccc1,Karthikeyan M.; Glen R.C.; Bender A. General melting point prediction based on a diverse compound dataset and artificial neural networks. J. Chem. Inf. Model.; 2005; 45(3); 581-3048
7642,7022.0,,,7643.0,http://www.alfa.com/en/GP100W.pgm?DSSTK=A13128,-75.0,methyl acrylate,COC(=O)C=C,Alfa Aesar
15806,13835235.0,,,15807.0,http://msds.chem.ox.ac.uk/,-13.0,Ethylene glycol,OCCO,academic website
7812,72693.0,,,7813.0,http://www.alfa.com/en/GP100W.pgm?DSSTK=A12250,95.0,N-(hydroxymethyl)benzamide,c1ccc(cc1)C(=O)NCO,Alfa Aesar
2222,21112244.0,,,2223.0,http://www.alfa.com/en/GP100W.pgm?DSSTK=A12277,2.0,2-bromomesitylene,Cc1cc(c(c(c1)C)Br)C,Alfa Aesar
16495,3617.0,,,16496.0,http://www.drugbank.ca/drugs/DB04818,150.0,Iproniazid,O=C(NNC(C)C)c1ccncc1,DrugBank
22878,56120.0,,,22879.0,http://www.srcinc.com/what-we-do/product.aspx?id=133,-90.0,"propanoyl chloride, 2-methyl-",CC(C)C(Cl)=O,PHYSPROP
12626,202641.0,,,12627.0,http://dx.doi.org/10.1021/ci0500132,114.0,N-{2-[4-(benzyloxy)-3-methoxyphenyl]ethyl}-3-methylbutanamide,O=C(NCCc1ccc(OCc2ccccc2)c(OC)c1)CC(C)C,Karthikeyan M.; Glen R.C.; Bender A. General melting point prediction based on a diverse compound dataset and artificial neural networks. J. Chem. Inf. Model.; 2005; 45(3); 581-4209
27943,193441.0,,,27944.0,http://dx.doi.org/10.1080/10629360701430124,225.5,cortisone,O=C(CO)[C@@]3(O)CC[C@H]2[C@@H]4CC\C1=C\C(=O)CC[C@]1(C)[C@H]4C(=O)C[C@@]23C,RAEVSKY OA; PERLOVICH GL and SCHAPER K-J. Physicochemical properties/descriptors governing the solubility and partitioning of chemicals in water-solvent-gas systems. Part 2. Solubility in 1-octanol. SAR and QSAR in Environmental Research Vol. 18 Nos. 5–6 July–September 2007 543–578
17204,7976.0,,,17205.0,http://dx.doi.org/10.1021/ci700307p,109.0,talbutal,O=C1NC(=O)NC(=O)C1(CC=C)C(C)CC,Hughes LD; Palmer DS; Nigsch F and Mitchell JBO. 2008 Why are some properties more difficult to predict than others? A study of QSPR models of solubility; melting point and LogP. J. Chem. Inf. Model. 2008. 48 (1). pp 220?352
22421,582.0,,,22422.0,http://www.srcinc.com/what-we-do/product.aspx?id=133,292.0,d-alanine,CC(N)C(=O)O,PHYSPROP
10495,2035521.0,,,10496.0,http://dx.doi.org/10.1021/ci0500132,212.0,"ethyl 1-benzyl-2,5-dioxo-1,5-dihydro-2H-chromeno[4,3-b]pyridine-3-carboxylate",O=C1Oc2ccccc2C=2N(Cc3ccccc3)C(=O)C(=CC1=2)C(=O)OCC,Karthikeyan M.; Glen R.C.; Bender A. General melting point prediction based on a diverse compound dataset and artificial neural networks. J. Chem. Inf. Model.; 2005; 45(3); 581-2078
17216,10442445.0,,,17217.0,http://dx.doi.org/10.1021/ci700307p,161.0,warfarin,CC(=O)CC(C1=C(O)c2ccccc2OC1=O)c3ccccc3,Hughes LD; Palmer DS; Nigsch F and Mitchell JBO. 2008 Why are some properties more difficult to predict than others? A study of QSPR models of solubility; melting point and LogP. J. Chem. Inf. Model. 2008. 48 (1). pp 220?364
9460,4789457.0,,,9461.0,http://dx.doi.org/10.1021/ci0500132,173.0,"(2Z)-[(4-chlorophenyl)hydrazono][4-(4-methylphenyl)-1,3-thiazol-2-yl]ethanenitrile",Clc1ccc(NN=C(C#N)c2scc([nH0]2)c2ccc(C)cc2)cc1,Karthikeyan M.; Glen R.C.; Bender A. General melting point prediction based on a diverse compound dataset and artificial neural networks. J. Chem. Inf. Model.; 2005; 45(3); 581-1043
19701,10229.0,,,19702.0,http://www.srcinc.com/what-we-do/product.aspx?id=133,166.0,"2,7-diamino-fluoren",Nc1ccc2c3ccc(N)cc3Cc2c1,PHYSPROP
15986,7301.0,,,15987.0,http://msds.chem.ox.ac.uk/,-1.0,N-Cyclohexylcyclohexanamine,C1CCCCC1NC2CCCCC2,academic website
23037,60047.0,,,23038.0,http://www.srcinc.com/what-we-do/product.aspx?id=133,69.0,"benzenemethanamine, n-phenyl-n-(phenylmethyl)-",C(c1ccccc1)N(Cc2ccccc2)c3ccccc3,PHYSPROP
8154,12445.0,,,8155.0,http://www.alfa.com/en/GP100W.pgm?DSSTK=L08505,97.0,N-tert-butylacetamide,CC(=O)NC(C)(C)C,Alfa Aesar
1674,344378.0,,,1675.0,http://www.alfa.com/en/GP100W.pgm?DSSTK=B24153,240.0,"2,5-diphenyl-4-hydroxy-3-oxo-2,3-dihydrothiophene 1,1-dioxide",c1ccc(cc1)C2C(=O)C(=C(S2(=O)=O)c3ccccc3)O,Alfa Aesar
16794,5796.0,,,16795.0,http://www.drugbank.ca/drugs/DB04844,128.0,Tetrabenazine,CC(C)CC2CN3CCc1cc(OC)c(OC)cc1C3CC2=O,DrugBank
11865,2029935.0,,,11866.0,http://dx.doi.org/10.1021/ci0500132,136.0,"ethyl 4-[(2,2,3,3,4,4,5,5,6,6,7,7,8,8,9,9,9-heptadecafluorononanoyl)amino]benzoate",FC(F)(F)C(F)(F)C(F)(F)C(F)(F)C(F)(F)C(F)(F)C(F)(F)C(F)(F)C(=O)Nc1ccc(cc1)C(=O)OCC,Karthikeyan M.; Glen R.C.; Bender A. General melting point prediction based on a diverse compound dataset and artificial neural networks. J. Chem. Inf. Model.; 2005; 45(3); 581-3448