,csid,donotuse,donotusebecause,key,link,mpC,name,smiles,source
9465,4774279.0,,,9466.0,http://dx.doi.org/10.1021/ci0500132,227.0,"(8Z)-6-phenyl-6,7-dihydroisoquinolin-8(5H)-one oxime",ON=C1CC(Cc2cc[nH0]cc12)c1ccccc1,Karthikeyan M.; Glen R.C.; Bender A. General melting point prediction based on a diverse compound dataset and artificial neural networks. J. Chem. Inf. Model.; 2005; 45(3); 581-1048
14366,7340.0,,,14367.0,http://www.amazon.com/dp/B003XEQTLE,-70.0,tributylamine,CCCCN(CCCC)CCCC,Aldrich Chemical Company; Aldrich Catalog-Handbook of Fine Chemicals; Milwaukee; WI; 1984.
26721,21105856.0,,,26722.0,http://www.srcinc.com/what-we-do/product.aspx?id=133,15.8,4-(2-propenyl)phenol,Oc1ccc(CC=C)cc1,PHYSPROP
8053,599697.0,,,8054.0,http://www.alfa.com/en/GP100W.pgm?DSSTK=B21030,144.0,N-fmoc-L-valine,CC(C)[C@@H](C(=O)O)NC(=O)OCC1c2ccccc2-c3c1cccc3,Alfa Aesar
22401,682.0,,,22402.0,http://www.srcinc.com/what-we-do/product.aspx?id=133,-114.1,ethanol,CCO,PHYSPROP
8381,70450.0,,,8382.0,http://www.alfa.com/en/GP100W.pgm?DSSTK=L20203,50.0,quinoline-4-carboxaldehyde,c1ccc2c(c1)c(ccn2)C=O,Alfa Aesar
8406,10483270.0,,,8407.0,http://www.alfa.com/en/GP100W.pgm?DSSTK=B25332,50.0,salicylideneaniline,c1ccc(cc1)N=Cc2ccccc2O,Alfa Aesar
9489,4762376.0,,,9490.0,http://dx.doi.org/10.1021/ci0500132,116.0,"4-[(E)-2-phenylethenyl]benzene-1,3-diamine",Nc1ccc(C=Cc2ccccc2)c(N)c1,Karthikeyan M.; Glen R.C.; Bender A. General melting point prediction based on a diverse compound dataset and artificial neural networks. J. Chem. Inf. Model.; 2005; 45(3); 581-1072
1576,714347.0,,,1577.0,http://www.alfa.com/en/GP100W.pgm?DSSTK=H27142,45.0,"2,5-dibromo-3-methylpyridine",Cc1cc(cnc1Br)Br,Alfa Aesar
3870,69043.0,,,3871.0,http://www.alfa.com/en/GP100W.pgm?DSSTK=L13045,65.0,3-cyanophenyl isothiocyanate,c1cc(cc(c1)N=C=S)C#N,Alfa Aesar
20878,6885.0,,,20879.0,http://www.srcinc.com/what-we-do/product.aspx?id=133,178.0,n-(2-hydroxyethyl)iminodiacetic acid,OC(=O)CN(CC(=O)O)CCO,PHYSPROP
22375,789.0,,,22376.0,http://www.srcinc.com/what-we-do/product.aspx?id=133,175.0,"butanedioic acid, methylene-",O=C(O)C(=C)CC(=O)O,PHYSPROP
13465,13400.0,,,13466.0,http://www.amazon.com/dp/B002IYRJWI,-91.0,3-methyl-3-ethylpentane,CC(CC)(CC)CC,American Petroleum Institute. Research Project 44; Selected Values of Properties of Hydrocarbons and Related Compounds. Texas A & M University; College Station; TX; 1973.
1089,61205.0,,,1090.0,http://www.alfa.com/en/GP100W.pgm?DSSTK=A18283,-65.0,"2,2,2-trifluoroethyl trifluoroacetate",C(C(F)(F)F)OC(=O)C(F)(F)F,Alfa Aesar
19174,11586.0,,,19175.0,http://www.srcinc.com/what-we-do/product.aspx?id=133,95.0,methyl p-nitrobenzoate,O=[N+]([O-])c1ccc(cc1)C(=O)OC,PHYSPROP
4711,3073072.0,,,4712.0,http://www.alfa.com/en/GP100W.pgm?DSSTK=H27299,19.0,4-bromo-2-chloropyridine,c1cnc(cc1Br)Cl,Alfa Aesar
22927,58328.0,,,22928.0,http://www.srcinc.com/what-we-do/product.aspx?id=133,163.5,"2(1h)-quinolinone, 3,4-dihydro-",O=C1CCc2ccccc2N1,PHYSPROP
7054,65971.0,,,7055.0,http://www.alfa.com/en/GP100W.pgm?DSSTK=H30634,177.0,ethyl 2-aminothiazole-4-carboxylate,CCOC(=O)c1csc(n1)N,Alfa Aesar
3531,65974.0,,,3532.0,http://www.alfa.com/en/GP100W.pgm?DSSTK=A15864,188.0,"3,5-di-tert-butyl-4-hydroxybenzaldehyde",CC(C)(C)c1cc(cc(c1O)C(C)(C)C)C=O,Alfa Aesar
15972,17187.0,,,15973.0,http://msds.chem.ox.ac.uk/,18.0,"N-[2-(Dimethylamino)ethyl]-N,N',N'-trimethylethane-1,2-diamine",CN(C)CCN(C)CCN(C)C,academic website
2013,148794.0,,,2014.0,http://www.alfa.com/en/GP100W.pgm?DSSTK=L06116,183.0,"2-amino-5-tert-butyl-1,3,4-thiadiazole",CC(C)(C)c1nnc(s1)N,Alfa Aesar
12081,2029281.0,,,12082.0,http://dx.doi.org/10.1021/ci0500132,152.0,"6-(2-methoxyphenyl)-3-(4-nitrophenyl)-5,6-dihydro[1,2,4]triazolo[3,4-b][1,3,4]thiadiazole",S1c2[nH0][nH0]c([nH0]2NC1c1ccccc1OC)c1ccc([N+](=O)[O-])cc1,Karthikeyan M.; Glen R.C.; Bender A. General melting point prediction based on a diverse compound dataset and artificial neural networks. J. Chem. Inf. Model.; 2005; 45(3); 581-3664
21593,4778.0,,,21594.0,http://www.srcinc.com/what-we-do/product.aspx?id=133,130.0,propyl gallate,Oc1cc(cc(O)c1O)C(=O)OCCC,PHYSPROP
9677,4645410.0,,,9678.0,http://dx.doi.org/10.1021/ci0500132,211.0,"(2E)-2-(1,3-benzothiazol-2-yl)-3-[4-(dimethylamino)phenyl]prop-2-enamide",s1c2ccccc2[nH0]c1C(=Cc1ccc(N(C)C)cc1)C(=O)N,Karthikeyan M.; Glen R.C.; Bender A. General melting point prediction based on a diverse compound dataset and artificial neural networks. J. Chem. Inf. Model.; 2005; 45(3); 581-1260
2066,6771.0,,,2067.0,http://www.alfa.com/en/GP100W.pgm?DSSTK=A10857,43.0,2-benzoylpyridine,c1ccc(cc1)C(=O)c2ccccn2,Alfa Aesar
18958,12071.0,,,18959.0,http://www.srcinc.com/what-we-do/product.aspx?id=133,69.4,nonadecanoic acid,O=C(O)CCCCCCCCCCCCCCCCCC,PHYSPROP
23193,61359.0,,,23194.0,http://www.srcinc.com/what-we-do/product.aspx?id=133,36.0,11-fluoro-undecanoic acid,O=C(O)CCCCCCCCCCF,PHYSPROP
7829,20481328.0,,,7830.0,http://www.alfa.com/en/GP100W.pgm?DSSTK=A13885,130.0,"N,N'-bis(salicylidene)ethylenediamine",c1ccc(c(c1)C=NCCN=Cc2ccccc2O)O,Alfa Aesar
20077,8763.0,,,20078.0,http://www.srcinc.com/what-we-do/product.aspx?id=133,278.0,benzo(ghi)perylene,c3cc2ccc1cccc6c1c2c4c3ccc5cccc6c45,PHYSPROP
23555,63310.0,,,23556.0,http://www.srcinc.com/what-we-do/product.aspx?id=133,120.0,"2,4(1h,3h)-pyrimidinedione, 1,3-dimethyl-",CN1C(=O)C=CN(C)C1=O,PHYSPROP
4078,20277.0,,,4079.0,http://www.alfa.com/en/GP100W.pgm?DSSTK=B25682,222.0,3-methyl-2-nitrobenzoic acid,Cc1cccc(c1[N+](=O)[O-])C(=O)O,Alfa Aesar
300,10864.0,,,301.0,http://www.alfa.com/en/GP100W.pgm?DSSTK=A11686,42.0,1-bromo-2-nitrobenzene,c1ccc(c(c1)[N+](=O)[O-])Br,Alfa Aesar
26867,21111723.0,,,26868.0,http://www.srcinc.com/what-we-do/product.aspx?id=133,54.5,"benzene, 1,3,5-trimethoxy-",COc1cc(cc(OC)c1)OC,PHYSPROP
24186,73654.0,,,24187.0,http://www.srcinc.com/what-we-do/product.aspx?id=133,54.0,chloromethyl phenyl sulfone,O=S(=O)(CCl)c1ccccc1,PHYSPROP
7030,71276.0,,,7031.0,http://www.alfa.com/en/GP100W.pgm?DSSTK=A12366,50.0,ethyl (ethoxymethylene)cyanoacetate,CCOC=C(C#N)C(=O)OCC,Alfa Aesar
19439,11016.0,,,19440.0,http://www.srcinc.com/what-we-do/product.aspx?id=133,61.0,n-benzylacetamide,CC(=O)NCc1ccccc1,PHYSPROP
3864,553424.0,,,3865.0,http://www.alfa.com/en/GP100W.pgm?DSSTK=L17427,84.0,3-cyano-5-methylpyridine,Cc1cc(cnc1)C#N,Alfa Aesar
16819,71347.0,,,16820.0,http://www.drugbank.ca/drugs/DB02536,145.0,"(2r)-2,3-Dihydroxypropanal",O=C[C@H](O)CO,DrugBank
6565,69543.0,,,6566.0,http://www.alfa.com/en/GP100W.pgm?DSSTK=L01723,37.0,bis(phenylthio)methane,c1ccc(cc1)SCSc2ccccc2,Alfa Aesar
8174,71968.0,,,8175.0,http://www.alfa.com/en/GP100W.pgm?DSSTK=L00919,49.0,o-acetylsalicyloyl chloride,CC(=O)Oc1ccccc1C(=O)Cl,Alfa Aesar
11267,2032530.0,,,11268.0,http://dx.doi.org/10.1021/ci0500132,115.0,4-(3-oxo-3-phenylprop-1-en-1-yl)phenyl furan-2-carboxylate,O=C(C=Cc1ccc(OC(=O)c2occc2)cc1)c1ccccc1,Karthikeyan M.; Glen R.C.; Bender A. General melting point prediction based on a diverse compound dataset and artificial neural networks. J. Chem. Inf. Model.; 2005; 45(3); 581-2850
6592,12997.0,,,6593.0,http://www.alfa.com/en/GP100W.pgm?DSSTK=L00238,-135.0,butadiene monoxide,C=CC1CO1,Alfa Aesar
13840,13451.0,,,13841.0,http://www.amazon.com/dp/B002IYRJWI,-54.0,"2,7-dimethyloctane",CC(C)CCCCC(C)C,American Petroleum Institute. Research Project 44; Selected Values of Properties of Hydrocarbons and Related Compounds. Texas A & M University; College Station; TX; 1973.
13455,11035.0,,,13456.0,http://www.amazon.com/dp/B002IYRJWI,-121.0,3-methylheptane,CC(CC)CCCC,American Petroleum Institute. Research Project 44; Selected Values of Properties of Hydrocarbons and Related Compounds. Texas A & M University; College Station; TX; 1973.
18174,221116.0,,,18175.0,http://www.srcinc.com/what-we-do/product.aspx?id=133,-117.6,"1,2-dimethylcyclopentane (trans)",CC1CCCC1C,PHYSPROP
2777,6122.0,,,2778.0,http://www.alfa.com/en/GP100W.pgm?DSSTK=A15066,-90.0,2-iodopropane,CC(C)I,Alfa Aesar
22276,1141.0,,,22277.0,http://www.srcinc.com/what-we-do/product.aspx?id=133,338.0,uracil,O=C1C=CNC(=O)N1,PHYSPROP
16707,7890.0,,,16708.0,http://www.drugbank.ca/drugs/DB02771,-9.6,Dodecane,CCCCCCCCCCCC,DrugBank
3487,27407.0,,,3488.0,http://www.alfa.com/en/GP100W.pgm?DSSTK=B22989,88.0,"3,5-dimethoxybenzonitrile",COc1cc(cc(c1)OC)C#N,Alfa Aesar
27643,83823.0,,,27644.0,http://www.springerlink.com/content/jx24811g20648284/fulltext.pdf,170.0,"3β-Acetoxy-5,16-pregnadiene-20-one",C(C)(=O)O[C@H]4CC[C@@]3([C@H]2CC[C@@]1(C(=CC[C@H]1[C@@H]2CC=C3C4)C(C)=O)C)C,Pharmaceutical Chemistry Journal
8520,61483.0,,,8521.0,http://www.alfa.com/en/GP100W.pgm?DSSTK=L15648,-52.0,thionyl bromide,O=S(Br)Br,Alfa Aesar
23579,63495.0,,,23580.0,http://www.srcinc.com/what-we-do/product.aspx?id=133,96.5,"propiophenone, 2',5'-dihydroxy-",O=C(CC)c1cc(O)ccc1O,PHYSPROP
22874,56101.0,,,22875.0,http://www.srcinc.com/what-we-do/product.aspx?id=133,107.6,benoxacor,ClC(Cl)C(=O)N1c2ccccc2OCC1C,PHYSPROP
22857,55242.0,,,22858.0,http://www.srcinc.com/what-we-do/product.aspx?id=133,39.5,2-pentadecanone,CC(=O)CCCCCCCCCCCCC,PHYSPROP
24959,227670.0,,,24960.0,http://www.srcinc.com/what-we-do/product.aspx?id=133,166.5,"beta-d-glucopyranoside, 4-nitrophenyl",[O-][N+](=O)c1ccc(cc1)OC2OC(CO)C(O)C(O)C2O,PHYSPROP
2664,9354.0,,,2665.0,http://www.alfa.com/en/GP100W.pgm?DSSTK=L01735,-27.0,2-fluoroethanol,C(CF)O,Alfa Aesar
23146,61036.0,,,23147.0,http://www.srcinc.com/what-we-do/product.aspx?id=133,72.5,trifluoroacetamide,FC(F)(F)C(N)=O,PHYSPROP
16759,40130.0,,,16760.0,http://www.drugbank.ca/drugs/DB01197,106.0,Captopril,OC(=O)[C@@H]1CCCN1C(=O)[C@H](C)CS,DrugBank
9128,10483997.0,,,9129.0,http://dx.doi.org/10.1021/ci0500132,253.0,"(2Z)-[2-(4-hydroxyphenyl)hydrazinylidene][4-(4-methylphenyl)-1,3-thiazol-2-yl]ethanenitrile",s1cc([nH0]c1C(=NNc1ccc(O)cc1)C#N)c1ccc(C)cc1,Karthikeyan M.; Glen R.C.; Bender A. General melting point prediction based on a diverse compound dataset and artificial neural networks. J. Chem. Inf. Model.; 2005; 45(3); 581-709
14828,162470.0,,,14829.0,http://msds.chem.ox.ac.uk/,268.5,"(6aR,9aS)-4-Methoxy-2,3,6a,9a-tetrahydrocyclopenta[c]furo[3',2':4,5]furo[2,3-h]chromene-1,11-dione",O=C2Oc1c4c(cc(OC)c1C=3CCC(=O)C2=3)O[C@H]5OC=C[C@@H]45,academic website
14798,196452.0,,,14799.0,http://msds.chem.ox.ac.uk/,16.0,"(2R,3R)-Butane-2,3-diol",C[C@@H](O)[C@@H](C)O,academic website
17959,18608.0,,,17960.0,http://www.srcinc.com/what-we-do/product.aspx?id=133,-43.1,"naphthalene, 1,2,3,4-tetrahydro-2-methyl-",CC1Cc2ccccc2CC1,PHYSPROP
23358,62362.0,,,23359.0,http://www.srcinc.com/what-we-do/product.aspx?id=133,199.0,"benzoic acid, 4-benzoyl-",OC(=O)c1ccc(cc1)C(=O)c2ccccc2,PHYSPROP
27000,21246540.0,,,27001.0,http://www.srcinc.com/what-we-do/product.aspx?id=133,54.5,"2,4'-biphenyldiamine",Nc2ccccc2c1ccc(N)cc1,PHYSPROP
27282,2095571.0,,,27283.0,http://scripts.iucr.org/cgi-bin/paper?sx1069,207.0,N-Carbamoyl-beta-D-glucopyranosylamine,O=C(N[C@@H]1O[C@@H]([C@@H](O)[C@H](O)[C@H]1O)CO)N,IUCr
18983,12015.0,,,18984.0,http://www.srcinc.com/what-we-do/product.aspx?id=133,41.0,octadecanenitrile,CCCCCCCCCCCCCCCCCC#N,PHYSPROP
22385,757.0,,,22386.0,http://www.srcinc.com/what-we-do/product.aspx?id=133,220.0,"butyric acid, 2-amino-4-mercapto-, dl- (9ci)",O=C(O)C(N)CCS,PHYSPROP
8639,16243.0,,,8640.0,http://www.alfa.com/en/GP100W.pgm?DSSTK=B24455,39.0,"trimethyl 1,2,4-benzenetricarboxylate",COC(=O)c1ccc(c(c1)C(=O)OC)C(=O)OC,Alfa Aesar
24499,85490.0,,,24500.0,http://www.srcinc.com/what-we-do/product.aspx?id=133,32.0,"diethylmalonate, benzal",O=C(OCC)C(=C/c1ccccc1)C(=O)OCC,PHYSPROP
4756,73975.0,,,4757.0,http://www.alfa.com/en/GP100W.pgm?DSSTK=B21684,115.0,"4-bromo-3,5-dimethylphenol",Cc1cc(cc(c1Br)C)O,Alfa Aesar
3573,454039.0,,,3574.0,http://www.alfa.com/en/GP100W.pgm?DSSTK=L10134,24.0,3-acetylphenyl isothiocyanate,CC(=O)c1cccc(c1)N=C=S,Alfa Aesar
14228,11824.0,,,14229.0,http://www.amazon.com/dp/B003XEQTLE,8.0,dimethyl_adipate,O=C(CCCCC(=O)OC)OC,Aldrich Chemical Company; Aldrich Catalog-Handbook of Fine Chemicals; Milwaukee; WI; 1984.
1473,1441.0,,,1474.0,http://www.alfa.com/en/GP100W.pgm?DSSTK=A12467,138.0,"2,4-dichlorophenoxyacetic acid",c1cc(c(cc1Cl)Cl)OCC(=O)O,Alfa Aesar
11351,2031937.0,,,11352.0,http://dx.doi.org/10.1021/ci0500132,188.0,"3-hydroxy-3-(2-hydroxy-2-phenylethyl)-1,2,2-trimethylcyclopentanecarboxylic acid",O=C(O)C1(C)CCC(O)(CC(O)c2ccccc2)C1(C)C,Karthikeyan M.; Glen R.C.; Bender A. General melting point prediction based on a diverse compound dataset and artificial neural networks. J. Chem. Inf. Model.; 2005; 45(3); 581-2934
10770,2034268.0,x,salt - AL,10771.0,http://dx.doi.org/10.1021/ci0500132,342.0,"8-[5-(4-chlorophenyl)furan-2-yl]-10,10-dimethyl-6-phenyl-10H-pyrido[1,2-a]indolium perchlorate",Clc1ccc(cc1)c1oc(cc1)c1cc2[nH0+](c3ccccc3C2(C)C)c(c1)c1ccccc1.[Cl+3]([O-])([O-])([O-])[O-],Karthikeyan M.; Glen R.C.; Bender A. General melting point prediction based on a diverse compound dataset and artificial neural networks. J. Chem. Inf. Model.; 2005; 45(3); 581-2353
2850,61569.0,,,2851.0,http://www.alfa.com/en/GP100W.pgm?DSSTK=L08544,59.0,2-methoxyphenyl benzoate,COc1ccccc1OC(=O)c2ccccc2,Alfa Aesar
28008,14840.0,,,28009.0,http://webbook.nist.gov/cgi/cbook.cgi?ID=C124185&Units=SI&Mask=7,-29.85,decane,CCCCCCCCCC,NIST Web Book
11824,2030314.0,,,11825.0,http://dx.doi.org/10.1021/ci0500132,198.0,"diethyl 2,2'-[(4,6-dinitrobenzene-1,3-diyl)diimino]diacetate (non-preferred name)",O=[N+]([O-])c1cc([N+](=O)[O-])c(NCC(=O)OCC)cc1NCC(=O)OCC,Karthikeyan M.; Glen R.C.; Bender A. General melting point prediction based on a diverse compound dataset and artificial neural networks. J. Chem. Inf. Model.; 2005; 45(3); 581-3407
5555,21242821.0,,,5556.0,http://www.alfa.com/en/GP100W.pgm?DSSTK=L11181,97.0,4-phenylazophenyl isothiocyanate,c1ccc(cc1)N=Nc2ccc(cc2)N=C=S,Alfa Aesar
27825,2241.0,,,27826.0,http://www.sigmaaldrich.com/united-states.html,126.5,benzamide,c1ccc(cc1)C(=O)N,Sigma-Aldrich
25730,4516900.0,,,25731.0,http://www.srcinc.com/what-we-do/product.aspx?id=133,-19.0,"2-butene, 2-chloro-",CC=C(/C)Cl,PHYSPROP
2867,2326301.0,,,2868.0,http://www.alfa.com/en/GP100W.pgm?DSSTK=H31703,36.0,2-methyl-2-phenylmorpholine,CC1(CNCCO1)c2ccccc2,Alfa Aesar
17080,5768.0,,,17081.0,http://www.drugbank.ca/drugs/DB02772,185.5,Sucrose,O[C@@H]1[C@H](O[C@@H](CO)[C@H](O)[C@H]1O)O[C@@]2(CO)O[C@@H](CO)[C@H](O)[C@H]2O,DrugBank
17081,16736166.0,,,17082.0,http://www.drugbank.ca/drugs/DB03615,193.5,Ribostamycin,N[C@H]3[C@H](O)[C@@H](O)[C@H](CN)O[C@@H]3O[C@H]2[C@H](N)C[C@H](N)[C@@H](O)[C@@H]2O[C@@H]1O[C@@H](CO)[C@H](O)[C@H]1O,DrugBank
24737,120674.0,,,24738.0,http://www.srcinc.com/what-we-do/product.aspx?id=133,-20.5,"cyclohexanone, 2,2-dimethyl-",O=C1CCCCC1(C)C,PHYSPROP
16223,4060.0,,,16224.0,http://www.drugbank.ca/drugs/DB00370,115.0,Mirtazapine,CN1CC2N(CC1)c4ncccc4Cc3ccccc23,DrugBank
22250,1438.0,,,22251.0,http://www.srcinc.com/what-we-do/product.aspx?id=133,95.5,"2,4,6-tribromophenol",Brc1cc(Br)cc(Br)c1O,PHYSPROP
17429,29150.0,,,17430.0,http://www.srcinc.com/what-we-do/product.aspx?id=133,268.0,disperse violet 1,O=C2c1ccccc1C(=O)c3c2c(N)ccc3N,PHYSPROP
8175,13860775.0,,,8176.0,http://www.alfa.com/en/GP100W.pgm?DSSTK=A10288,6.0,o-anisidine,COc1ccccc1N,Alfa Aesar
13333,7817.0,,,13334.0,http://www.amazon.com/dp/B003XEQTLE,-92.0,butyl_vinyl_ether,C=COCCCC,Aldrich Chemical Company; Aldrich Catalog-Handbook of Fine Chemicals; Milwaukee; WI; 1984.
6624,3581957.0,,,6625.0,http://www.alfa.com/en/GP100W.pgm?DSSTK=H25887,63.0,chlorobis(4-methoxyphenyl)phosphine,COc1ccc(cc1)P(c2ccc(cc2)OC)Cl,Alfa Aesar
24452,84035.0,,,24453.0,http://www.srcinc.com/what-we-do/product.aspx?id=133,221.0,salicylamide o-acetic acid,NC(=O)c1ccccc1OCC(=O)O,PHYSPROP
8977,9686.0,,,8978.0,http://dx.doi.org/10.1021/ci020280x,75.0,phenadoxone,CCC(=O)C(CC(C)N1CCOCC1)(c2ccccc2)c3ccccc3,Bergstrom C. A. S.; Norinder U.; Luthman K.; Artursson P. Molecular Descriptors Influencing Melting Point and Their Role in Classification of Solid Drugs. J. Chem. Inf. Comput. Sci.; (Article); 2003; 43(4); 1177-1424
6205,600445.0,,,6206.0,http://www.alfa.com/en/GP100W.pgm?DSSTK=H27563,212.0,"7-bromo-2h-1,4-benzothiazin-3(4h)-one",c1cc2c(cc1Br)SCC(=O)N2,Alfa Aesar
3114,2017098.0,,,3115.0,http://www.alfa.com/en/GP100W.pgm?DSSTK=L19329,100.0,3-(3-aminophenyl)propionic acid,c1cc(cc(c1)N)CCC(=O)O,Alfa Aesar
20750,7132.0,,,20751.0,http://www.srcinc.com/what-we-do/product.aspx?id=133,20.0,acetophenone,CC(=O)c1ccccc1,PHYSPROP
17373,31410.0,,,17374.0,http://www.srcinc.com/what-we-do/product.aspx?id=133,178.5,nicomol,O=C(OCC4(COC(=O)c1cccnc1)CCCC(COC(=O)c2cccnc2)(COC(=O)c3cccnc3)C4O)c5cccnc5,PHYSPROP
22340,906.0,,,22341.0,http://www.srcinc.com/what-we-do/product.aspx?id=133,80.2,naphthalene,c1cccc2ccccc12,PHYSPROP
25397,1302769.0,,,25398.0,http://www.srcinc.com/what-we-do/product.aspx?id=133,43.0,"4,4-dimethyl-1-phenyl-pent-1-en-3-one",CC(C)(C)C(=O)/C=C/c1ccccc1,PHYSPROP
2129,62871.0,,,2130.0,http://www.alfa.com/en/GP100W.pgm?DSSTK=A16218,33.0,2-bromo-4-chlorophenol,c1cc(c(cc1Cl)Br)O,Alfa Aesar
1859,15847.0,,,1860.0,http://www.alfa.com/en/GP100W.pgm?DSSTK=B21624,90.0,2'-acetoxyacetophenone,CC(=O)c1ccccc1OC(=O)C,Alfa Aesar
9537,4701220.0,,,9538.0,http://dx.doi.org/10.1021/ci0500132,201.0,(2E)-[(2-methoxyphenyl)hydrazono](1-methyl-1H-benzimidazol-2-yl)ethanenitrile,O(C)c1ccccc1NN=C(C#N)c1[nH0]c2ccccc2[nH0]1C,Karthikeyan M.; Glen R.C.; Bender A. General melting point prediction based on a diverse compound dataset and artificial neural networks. J. Chem. Inf. Model.; 2005; 45(3); 581-1120
24820,150420.0,,,24821.0,http://www.srcinc.com/what-we-do/product.aspx?id=133,-134.8,4-methyl-2-pentene (cis),CC=CC(C)C,PHYSPROP
7800,848067.0,,,7801.0,http://www.alfa.com/en/GP100W.pgm?DSSTK=B22022,184.0,N(alpha)-fmoc-d-tryptophan,c1ccc2c(c1)c(c[nH]2)C[C@H](C(=O)O)NC(=O)OCC3c4ccccc4-c5c3cccc5,Alfa Aesar
13811,7142.0,,,13812.0,http://www.amazon.com/dp/B003XEQTLE,203.0,3-hydroxybenzoic_acid,OC(=O)c1cc(O)ccc1,Aldrich Chemical Company; Aldrich Catalog-Handbook of Fine Chemicals; Milwaukee; WI; 1984.
20735,7155.0,,,20736.0,http://www.srcinc.com/what-we-do/product.aspx?id=133,205.0,"3,5-dinitrobenzoic acid",O=[N+]([O-])c1cc(cc(c1)[N+]([O-])=O)C(=O)O,PHYSPROP
20167,8362.0,,,20168.0,http://www.srcinc.com/what-we-do/product.aspx?id=133,49.5,erbon,Clc1cc(OCCOC(=O)C(C)(Cl)Cl)c(Cl)cc1Cl,PHYSPROP
2036,65726.0,,,2037.0,http://www.alfa.com/en/GP100W.pgm?DSSTK=B21912,155.0,2-aminobenzenesulfonamide,c1ccc(c(c1)N)S(=O)(=O)N,Alfa Aesar
27316,553827.0,,,27317.0,http://www.sciencedirect.com/science/article/pii/S0928098708002911,87.75,(2E)-1-(2-Hydroxyphenyl)-3-phenyl-2-propen-1-one,OC1=C(C=CC=C1)C(\C=C\C2=CC=CC=C2)=O,European Journal of Pharmaceutical Sciences
10297,2036550.0,,,10298.0,http://dx.doi.org/10.1021/ci0500132,173.0,"2,3-diphenyl-2,3-dihydro-1H-indole",N1c2ccccc2C(c2ccccc2)C1c1ccccc1,Karthikeyan M.; Glen R.C.; Bender A. General melting point prediction based on a diverse compound dataset and artificial neural networks. J. Chem. Inf. Model.; 2005; 45(3); 581-1880
24473,84449.0,,,24474.0,http://www.srcinc.com/what-we-do/product.aspx?id=133,53.5,ethyl (1-(4-methyl)phenylsulfonyl) cyclobutane c,O=S(=O)(c1ccc(C)cc1)C2(CCC2)C(=O)OCC,PHYSPROP
19483,10889.0,,,19484.0,http://www.srcinc.com/what-we-do/product.aspx?id=133,175.0,diloxanide,CN(c1ccc(O)cc1)C(=O)C(Cl)Cl,PHYSPROP
7268,15783.0,,,7269.0,http://www.alfa.com/en/GP100W.pgm?DSSTK=A19780,47.0,glycidyl 4-methoxyphenyl ether,COc1ccc(cc1)OCC2CO2,Alfa Aesar
13343,29001.0,,,13344.0,http://www.amazon.com/dp/B003XEQTLE,-23.0,"2,4-pentanedione",CC(=O)CC(C)=O,Aldrich Chemical Company; Aldrich Catalog-Handbook of Fine Chemicals; Milwaukee; WI; 1984.
23230,61529.0,,,23231.0,http://www.srcinc.com/what-we-do/product.aspx?id=133,226.0,"anthracene, 9,10-dibromo-",Brc2c1ccccc1c(Br)c3ccccc23,PHYSPROP
19181,11580.0,x,wrong isomer JCB,19182.0,http://www.srcinc.com/what-we-do/product.aspx?id=133,247.0,4-formylbenzoic acid,OC(=O)c1cccc(C=O)c1,PHYSPROP
5225,58563.0,,,5226.0,http://www.alfa.com/en/GP100W.pgm?DSSTK=B24222,161.0,4-hydroxybenzamide,c1cc(ccc1C(=O)N)O,Alfa Aesar