,csid,donotuse,donotusebecause,key,link,mpC,name,smiles,source
9901,4644366.0,,,9902.0,http://dx.doi.org/10.1021/ci0500132,80.0,"3-(4-butoxyphenyl)-6-[(E)-2-phenylethenyl][1,2,4]triazolo[3,4-b][1,3,4]thiadiazole",S1c2[nH0][nH0]c([nH0]2N=C1C=Cc1ccccc1)c1ccc(OCCCC)cc1,Karthikeyan M.; Glen R.C.; Bender A. General melting point prediction based on a diverse compound dataset and artificial neural networks. J. Chem. Inf. Model.; 2005; 45(3); 581-1484
11647,2030806.0,,,11648.0,http://dx.doi.org/10.1021/ci0500132,64.0,2-bromo-1-naphthalen-1-yl-2-phenylethanone,BrC(c1ccccc1)C(=O)c1cccc2ccccc21,Karthikeyan M.; Glen R.C.; Bender A. General melting point prediction based on a diverse compound dataset and artificial neural networks. J. Chem. Inf. Model.; 2005; 45(3); 581-3230
1264,31931.0,,,1265.0,http://www.alfa.com/en/GP100W.pgm?DSSTK=A11206,4.0,"2,3-dichlorotoluene",Cc1cccc(c1Cl)Cl,Alfa Aesar
17218,3933.0,,,17219.0,http://dx.doi.org/10.1021/ci700307p,288.0,"5,5-diphenylbarbiturate",OC(=O)c1cc(N)ccc1O,Hughes LD; Palmer DS; Nigsch F and Mitchell JBO. 2008 Why are some properties more difficult to predict than others? A study of QSPR models of solubility; melting point and LogP. J. Chem. Inf. Model. 2008. 48 (1). pp 220?366
1010,2016678.0,,,1011.0,http://www.alfa.com/en/GP100W.pgm?DSSTK=H27209,116.0,"2-(di-tert-butylphosphino)-2'-(n,n-dimethylamino)biphenyl",CC(C)(C)P(c1ccccc1c2ccccc2N(C)C)C(C)(C)C,Alfa Aesar
5261,68939.0,,,5262.0,http://www.alfa.com/en/GP100W.pgm?DSSTK=B25104,126.0,4-iodobenzonitrile,c1cc(ccc1C#N)I,Alfa Aesar
23349,62335.0,,,23350.0,http://www.srcinc.com/what-we-do/product.aspx?id=133,72.0,"benzoic acid, 2-(dimethylamino)-",CN(C)c1ccccc1C(=O)O,PHYSPROP
23920,68349.0,,,23921.0,http://www.srcinc.com/what-we-do/product.aspx?id=133,244.0,"1,4-dihydroxytetrabromobenzene",Oc1c(Br)c(Br)c(O)c(Br)c1Br,PHYSPROP
6670,10230918.0,,,6671.0,http://www.alfa.com/en/GP100W.pgm?DSSTK=H26815,30.0,"cis-decahydro-2a,4a,6a,8a-tetraazacyclopent[fg]acenaphthylene",C1N2[C@H]3N(C1)CCN4[C@H]3N(CC4)CC2,Alfa Aesar
19378,11151.0,,,19379.0,http://www.srcinc.com/what-we-do/product.aspx?id=133,-137.8,bromoethene,BrC=C,PHYSPROP
18810,12750.0,,,18811.0,http://www.srcinc.com/what-we-do/product.aspx?id=133,206.0,lormetazepam,Clc3ccccc3C2=NC(O)C(=O)N(C)c1ccc(Cl)cc12,PHYSPROP
24646,99564.0,,,24647.0,http://www.srcinc.com/what-we-do/product.aspx?id=133,40.5,"2,2,3-trimethyl-cyclopent-3-enecarboxylic acid",OC(=O)C1CC=C(C)C1(C)C,PHYSPROP
5166,61754.0,,,5167.0,http://www.alfa.com/en/GP100W.pgm?DSSTK=B25533,97.0,4-fluorophenyl 2-thienyl ketone,c1cc(sc1)C(=O)c2ccc(cc2)F,Alfa Aesar
28210,10481896.0,,,28211.0,http://www.aapspharmscitech.org/view.asp?art=pt070126,113.0,lindane,Cl[C@H]1[C@H](Cl)[C@@H](Cl)[C@@H](Cl)[C@H](Cl)[C@H]1Cl,Sepassi K; Yalkowsky SH; AAPS PharmSciTech; 7(1); E1-E8 (2006)
16742,6224.0,,,16743.0,http://www.drugbank.ca/drugs/DB03575,46.5,Phencyclidine,C1CC(CCC1)(c2ccccc2)N3CCCCC3,DrugBank
23592,63613.0,,,23593.0,http://www.srcinc.com/what-we-do/product.aspx?id=133,-156.5,"silane, methyl-",C[SiH3],PHYSPROP
20456,7733.0,,,20457.0,http://www.srcinc.com/what-we-do/product.aspx?id=133,-101.0,divinyl ether,C=COC=C,PHYSPROP
2894,258211.0,,,2895.0,http://www.alfa.com/en/GP100W.pgm?DSSTK=L10850,51.0,2-methyl-5-nitrophenyl isocyanate,Cc1ccc(cc1N=C=O)[N+](=O)[O-],Alfa Aesar
16778,27273.0,,,16779.0,http://www.drugbank.ca/drugs/DB00428,115.0,Streptozocin,O[C@H]1O[C@H](CO)[C@@H](O)[C@H](O)[C@H]1NC(=O)N(C)N=O,DrugBank
12828,61388.0,,,12829.0,http://dx.doi.org/10.1021/ci0500132,69.0,benzofuroxan,[O-][nH0+]1o[nH0]c2ccccc12,Karthikeyan M.; Glen R.C.; Bender A. General melting point prediction based on a diverse compound dataset and artificial neural networks. J. Chem. Inf. Model.; 2005; 45(3); 581-4411
24019,70358.0,,,24020.0,http://www.srcinc.com/what-we-do/product.aspx?id=133,88.5,"carbamic chloride, methylphenyl-",CN(C(Cl)=O)c1ccccc1,PHYSPROP
892,642983.0,,,893.0,http://www.alfa.com/en/GP100W.pgm?DSSTK=A14510,171.0,(4-chlorophenylsulfonyl)acetonitrile,c1cc(ccc1S(=O)(=O)CC#N)Cl,Alfa Aesar
25455,2297396.0,,,25456.0,http://www.srcinc.com/what-we-do/product.aspx?id=133,58.5,"1,2,3,4,5,6-hexachloro-3-hexene",Cl/C(C(Cl)CCl)=C(/Cl)C(Cl)CCl,PHYSPROP
12528,277431.0,,,12529.0,http://dx.doi.org/10.1021/ci0500132,265.0,"5-(3,4-dimethoxybenzylidene)hexahydropyrimidine-2,4,6-trione",O=C1NC(=O)C(=Cc2ccc(OC)c(OC)c2)C(=O)N1,Karthikeyan M.; Glen R.C.; Bender A. General melting point prediction based on a diverse compound dataset and artificial neural networks. J. Chem. Inf. Model.; 2005; 45(3); 581-4111
20874,6887.0,,,20875.0,http://www.srcinc.com/what-we-do/product.aspx?id=133,105.0,"butanamide, n-(2-methylphenyl)-3-oxo-",O=C(Nc1ccccc1C)CC(C)=O,PHYSPROP
8484,528656.0,,,8485.0,http://www.alfa.com/en/GP100W.pgm?DSSTK=B21599,77.0,tetrafluoroisophthalonitrile,C(#N)c1c(c(c(c(c1F)F)F)C#N)F,Alfa Aesar
16130,6170.0,,,16131.0,http://msds.chem.ox.ac.uk/,-3.0,tert-Butyl hydroperoxide,CC(C)(C)OO,academic website
997,9381411.0,,,998.0,http://www.alfa.com/en/GP100W.pgm?DSSTK=H30741,93.0,2-(boc-amino)pyridine,CC(C)(C)OC(=O)Nc1ccccn1,Alfa Aesar
9009,5507.0,,,9010.0,http://dx.doi.org/10.1021/ci020280x,131.0,xylometazoline,Cc1cc(cc(C)c1CC2=NCCN2)C(C)(C)C,Bergstrom C. A. S.; Norinder U.; Luthman K.; Artursson P. Molecular Descriptors Influencing Melting Point and Their Role in Classification of Solid Drugs. J. Chem. Inf. Comput. Sci.; (Article); 2003; 43(4); 1177-1456
19471,10914.0,,,19472.0,http://www.srcinc.com/what-we-do/product.aspx?id=133,79.0,2-nitronaphthalene,[O-][N+](=O)c1ccc2ccccc2c1,PHYSPROP
12898,15704.0,,,12899.0,http://dx.doi.org/10.1021/ci0500132,164.0,"(1,4-Benzodioxan-2-ylmethyl)guanidine",O1CC(Oc2ccccc12)CNC(=N)N,Karthikeyan M.; Glen R.C.; Bender A. General melting point prediction based on a diverse compound dataset and artificial neural networks. J. Chem. Inf. Model.; 2005; 45(3); 581-4481
7461,2023703.0,,,7462.0,http://www.alfa.com/en/GP100W.pgm?DSSTK=B25481,117.0,"methyl 1,2,5-trimethyl-1h-pyrrole-3-carboxylate",Cc1cc(c(n1C)C)C(=O)OC,Alfa Aesar
10532,2035455.0,,,10533.0,http://dx.doi.org/10.1021/ci0500132,196.0,2-[(2-Nitro-phenyl)-hydrazono]-malonic acid diethyl ester,O=[N+]([O-])c1ccccc1NN=C(C(=O)OCC)C(=O)OCC,Karthikeyan M.; Glen R.C.; Bender A. General melting point prediction based on a diverse compound dataset and artificial neural networks. J. Chem. Inf. Model.; 2005; 45(3); 581-2115
19020,11919.0,,,19021.0,http://www.srcinc.com/what-we-do/product.aspx?id=133,-82.5,tetraethylsilane,CC[Si](CC)(CC)CC,PHYSPROP
22809,54968.0,,,22810.0,http://www.srcinc.com/what-we-do/product.aspx?id=133,8.0,"2-butanone, 4-(4-methoxyphenyl)-",COc1ccc(CCC(C)=O)cc1,PHYSPROP
21774,3893.0,,,21775.0,http://www.srcinc.com/what-we-do/product.aspx?id=133,-60.0,mechlorethamine,ClCCN(C)CCCl,PHYSPROP
12358,576854.0,,,12359.0,http://dx.doi.org/10.1021/ci0500132,106.0,"6-(3,4-dimethoxyphenyl)-3-(phenoxymethyl)[1,2,4]triazolo[3,4-b][1,3,4]thiadiazole",S1c2[nH0][nH0]c([nH0]2N=C1c1ccc(OC)c(OC)c1)COc1ccccc1,Karthikeyan M.; Glen R.C.; Bender A. General melting point prediction based on a diverse compound dataset and artificial neural networks. J. Chem. Inf. Model.; 2005; 45(3); 581-3941
8762,14288.0,,,8763.0,http://dx.doi.org/10.1021/ci020280x,159.0,amidephrine,CNCC(O)c1cccc(NS(C)(=O)=O)c1,Bergstrom C. A. S.; Norinder U.; Luthman K.; Artursson P. Molecular Descriptors Influencing Melting Point and Their Role in Classification of Solid Drugs. J. Chem. Inf. Comput. Sci.; (Article); 2003; 43(4); 1177-1209
23721,65745.0,,,23722.0,http://www.srcinc.com/what-we-do/product.aspx?id=133,51.0,"benzonitrile, 2-amino-",N#Cc1ccccc1N,PHYSPROP
16090,7566.0,,,16091.0,http://msds.chem.ox.ac.uk/,-92.0,Propiononitrile,CCC#N,academic website
25837,4942342.0,,,25838.0,http://www.srcinc.com/what-we-do/product.aspx?id=133,42.5,"2,4-pentadienal, 5-phenyl-",O=CC=CC=Cc1ccccc1,PHYSPROP
3823,2016585.0,,,3824.0,http://www.alfa.com/en/GP100W.pgm?DSSTK=H31669,57.0,3-chloro-5-fluorobenzonitrile,c1c(cc(cc1F)Cl)C#N,Alfa Aesar
3039,8274.0,,,3040.0,http://www.alfa.com/en/GP100W.pgm?DSSTK=A18734,215.0,2-phenylquinoline-4-carboxylic acid,c1ccc(cc1)c2cc(c3ccccc3n2)C(=O)O,Alfa Aesar
13026,3765.0,,,13027.0,http://dx.doi.org/10.1021/ci0500132,181.0,Letrozole,N#Cc1ccc(cc1)C([nH0]1[nH0]c[nH0]c1)c1ccc(C#N)cc1,Karthikeyan M.; Glen R.C.; Bender A. General melting point prediction based on a diverse compound dataset and artificial neural networks. J. Chem. Inf. Model.; 2005; 45(3); 581-4609
16401,559067.0,x,HBr Salt - EC,16402.0,http://www.drugbank.ca/drugs/DB00333,235.0,Methadone,O=C(C(c1ccccc1)(c2ccccc2)C[C@@H](N(C)C)C)CC,DrugBank
10550,2035275.0,,,10551.0,http://dx.doi.org/10.1021/ci0500132,121.0,"3-(4-methoxyphenyl)-2,2-dimethylhexanedioic acid",O=C(O)CCC(c1ccc(OC)cc1)C(C)(C)C(=O)O,Karthikeyan M.; Glen R.C.; Bender A. General melting point prediction based on a diverse compound dataset and artificial neural networks. J. Chem. Inf. Model.; 2005; 45(3); 581-2133
20101,8600.0,,,20102.0,http://www.srcinc.com/what-we-do/product.aspx?id=133,83.0,anileridine,O=C(OCC)C2(CCN(CCc1ccc(N)cc1)CC2)c3ccccc3,PHYSPROP
10714,2034571.0,,,10715.0,http://dx.doi.org/10.1021/ci0500132,184.0,"5-(4-bromophenyl)-3-[(4-chlorophenyl)carbonyl]-3aH-pyrrolo[3,4-d]isoxazole-4,6(5H,6aH)-dione",Brc1ccc(N2C(=O)C3ON=C(C(=O)c4ccc(Cl)cc4)C3C2=O)cc1,Karthikeyan M.; Glen R.C.; Bender A. General melting point prediction based on a diverse compound dataset and artificial neural networks. J. Chem. Inf. Model.; 2005; 45(3); 581-2297
24226,76390.0,,,24227.0,http://www.srcinc.com/what-we-do/product.aspx?id=133,109.0,pentafluorophenoxyacetic acid,O=C(O)COc1c(F)c(F)c(F)c(F)c1F,PHYSPROP
16113,331.0,,,16114.0,http://msds.chem.ox.ac.uk/,161.0,Salicylic acid,OC(=O)c1ccccc1O,academic website
1708,21169503.0,,,1709.0,http://www.alfa.com/en/GP100W.pgm?DSSTK=L01285,81.0,"2,6-dibromoaniline",c1cc(c(c(c1)Br)N)Br,Alfa Aesar
3677,21242267.0,,,3678.0,http://www.alfa.com/en/GP100W.pgm?DSSTK=H26216,68.0,"3-bromo-4,5-difluoroaniline",c1c(cc(c(c1F)F)Br)N,Alfa Aesar
13641,12241.0,,,13642.0,http://www.amazon.com/dp/B003XEQTLE,15.0,cyclooctanol,OC1CCCCCCC1,Aldrich Chemical Company; Aldrich Catalog-Handbook of Fine Chemicals; Milwaukee; WI; 1984.
3398,583635.0,,,3399.0,http://www.alfa.com/en/GP100W.pgm?DSSTK=B25390,242.0,"3,5-dibromo-4-methylbenzoic acid",Cc1c(cc(cc1Br)C(=O)O)Br,Alfa Aesar
16537,5736.0,,,16538.0,http://www.drugbank.ca/drugs/DB00133,222.0,L-Serine,O=C(O)[C@@H](N)CO,DrugBank
25344,618121.0,,,25345.0,http://www.srcinc.com/what-we-do/product.aspx?id=133,178.5,pyrantel,CN2CCCN=C2/C=C/c1cccs1,PHYSPROP
19341,11253.0,,,19342.0,http://www.srcinc.com/what-we-do/product.aspx?id=133,66.5,"propanoic acid, 2,3-dibromo-",BrC(CBr)C(=O)O,PHYSPROP
20903,6842.0,,,20904.0,http://www.srcinc.com/what-we-do/product.aspx?id=133,159.3,thianthrene,c1ccc2Sc3ccccc3Sc2c1,PHYSPROP
2451,72174.0,,,2452.0,http://www.alfa.com/en/GP100W.pgm?DSSTK=A11361,118.0,2-chlorobenzhydrazide,c1ccc(c(c1)C(=O)NN)Cl,Alfa Aesar
25287,553960.0,,,25288.0,http://www.srcinc.com/what-we-do/product.aspx?id=133,169.0,b-nitro-4-oh-3-methoxystyrene,Oc1ccc(cc1OC)/C=C/[N+]([O-])=O,PHYSPROP
17689,23048.0,,,17690.0,http://www.srcinc.com/what-we-do/product.aspx?id=133,-120.6,chlorine oxide,ClOCl,PHYSPROP
25800,4655810.0,,,25801.0,http://www.srcinc.com/what-we-do/product.aspx?id=133,202.3,furonazide,CC(=NNC(=O)c1ccncc1)c2ccco2,PHYSPROP
27810,10468.0,,,27811.0,http://chemspider.com/10468,69.5,"B,B-dimethylacrylic acid",O=C(O)\C=C(/C)C,EPISuite-ChemSpider
27338,4526784.0,,,27339.0,http://www.sciencedirect.com/science/article/pii/S0968089609002028,99.0,"(2E)-1,3-Bis-(4-methoxyphenyl)-2-propen-1-one",COC1=CC=C(C=C1)C(\C=C\C2=CC=C(C=C2)OC)=O,Bioorganic and Medicinal Chemistry
24985,251833.0,,,24986.0,http://www.srcinc.com/what-we-do/product.aspx?id=133,76.0,matrine,O=C2CCCC1C3CCCN4CCCC(CN12)C34,PHYSPROP
23553,63270.0,,,23554.0,http://www.srcinc.com/what-we-do/product.aspx?id=133,-115.0,undecafluoro-3-trifluoromethyl-pentane,FC(C(F)(F)C(F)(F)F)(C(F)(F)C(F)(F)F)C(F)(F)F,PHYSPROP
23092,60463.0,,,23093.0,http://www.srcinc.com/what-we-do/product.aspx?id=133,87.5,"benzenamine, n,n-diethyl-4-nitroso-",CCN(CC)c1ccc(cc1)N=O,PHYSPROP
6564,2623876.0,,,6565.0,http://www.alfa.com/en/GP100W.pgm?DSSTK=L19792,59.0,bis(phenylacetyl) disulfide,c1ccc(cc1)CC(=O)SSC(=O)Cc2ccccc2,Alfa Aesar
25253,553346.0,,,25254.0,http://www.srcinc.com/what-we-do/product.aspx?id=133,59.0,phenyl (2-phenyl)vinyl ether,O=C(/C=C/c1ccccc1)c2ccccc2,PHYSPROP
26654,13875441.0,,,26655.0,http://www.srcinc.com/what-we-do/product.aspx?id=133,33.0,m-bromophenol,Oc1cc(Br)ccc1,PHYSPROP
23838,67446.0,,,23839.0,http://www.srcinc.com/what-we-do/product.aspx?id=133,-58.0,"1-hexanol, 3,3,4,4,5,5,6,6,6-nonafluoro-",FC(F)(C(F)(F)CCO)C(F)(F)C(F)(F)F,PHYSPROP
782,88752.0,,,783.0,http://www.alfa.com/en/GP100W.pgm?DSSTK=L02610,33.0,1-(pentafluorophenyl)ethanol,CC(c1c(c(c(c(c1F)F)F)F)F)O,Alfa Aesar
26840,21106541.0,,,26841.0,http://www.srcinc.com/what-we-do/product.aspx?id=133,21.0,"benzoic acid, 3-chloro-, methyl ester",Clc1cc(ccc1)C(=O)OC,PHYSPROP
8715,11795.0,,,8716.0,http://www.alfa.com/en/GP100W.pgm?DSSTK=L14601,103.0,valeramide,CCCCC(=O)N,Alfa Aesar
6994,83793.0,,,6995.0,http://www.alfa.com/en/GP100W.pgm?DSSTK=A11688,102.0,D-malic acid,C([C@H](C(=O)O)O)C(=O)O,Alfa Aesar
18110,16728.0,,,18111.0,http://www.srcinc.com/what-we-do/product.aspx?id=133,101.0,thioacetaldehyde,CC1SC(C)SC(C)S1,PHYSPROP
3057,6718.0,,,3058.0,http://www.alfa.com/en/GP100W.pgm?DSSTK=A18461,10.0,2-sec-butylphenol,CCC(C)c1ccccc1O,Alfa Aesar
4498,65628.0,,,4499.0,http://www.alfa.com/en/GP100W.pgm?DSSTK=A17779,194.0,"4,7-dimethyl-1,10-phenanthroline",Cc1ccnc2c1ccc3c2nccc3C,Alfa Aesar
27735,6478.0,,,27736.0,http://dx.doi.org/10.1080/10629360701430124,95.0,acenaphthene,c1cc2cccc3c2c(c1)CC3,RAEVSKY OA; PERLOVICH GL and SCHAPER K-J. Physicochemical properties/descriptors governing the solubility and partitioning of chemicals in water-solvent-gas systems. Part 2. Solubility in 1-octanol. SAR and QSAR in Environmental Research Vol. 18 Nos. 5–6 July–September 2007 543–578
6447,60825.0,,,6448.0,http://www.alfa.com/en/GP100W.pgm?DSSTK=L11229,54.0,benzofurazan,c1ccc2c(c1)non2,Alfa Aesar
25501,2882053.0,,,25502.0,http://www.srcinc.com/what-we-do/product.aspx?id=133,189.0,glucovanillin,O=Cc2ccc(OC1OC(CO)C(O)C(O)C1O)c(OC)c2,PHYSPROP
21208,6256.0,,,21209.0,http://www.srcinc.com/what-we-do/product.aspx?id=133,204.0,"1,3-propanediol, 2-(hydroxymethyl)-2-methyl-",CC(CO)(CO)CO,PHYSPROP
16893,2686.0,,,16894.0,http://www.drugbank.ca/drugs/DB04815,178.5,Clioquinol,Oc1c(I)cc(Cl)c2cccnc12,DrugBank
24221,76019.0,,,24222.0,http://www.srcinc.com/what-we-do/product.aspx?id=133,123.0,1-phenyl-5-chlorotetrazole,Clc2nnnn2c1ccccc1,PHYSPROP
28436,21106365.0,,,28437.0,http://dx.doi.org/10.1016/j.chemosphere.2013.10.095,187.0,Phenothazine,C1=CC=C2C(=C1)NC3=CC=CC=C3S2,Abraham M.H. and Acree Jr. W.E. The solubility of liquid and solid compounds in dry octan-1-ol. Chemosphere (2013)
28158,13328.0,,,28159.0,http://dx.doi.org/10.1080/10629360701430124,160.0,heptachlor epoxide,Cl\C1=C(/Cl)C2(Cl)C(Cl)(Cl)C1(Cl)C4C2C3OC3C4Cl,RAEVSKY OA; PERLOVICH GL and SCHAPER K-J. Physicochemical properties/descriptors governing the solubility and partitioning of chemicals in water-solvent-gas systems. Part 2. Solubility in 1-octanol. SAR and QSAR in Environmental Research Vol. 18 Nos. 5–6 July–September 2007 543–578
2261,21242790.0,,,2262.0,http://www.alfa.com/en/GP100W.pgm?DSSTK=L04593,86.0,"2-chloro-1,3-dinitrobenzene",c1cc(c(c(c1)[N+](=O)[O-])Cl)[N+](=O)[O-],Alfa Aesar
26341,10469509.0,,,26342.0,http://www.srcinc.com/what-we-do/product.aspx?id=133,164.0,d6-anthrquinone dye,Oc3cc(OC1C=CC(=CC1)N2CCCCCC2=O)c(N)c5c3C(=O)c4ccccc4C5=O,PHYSPROP
8982,4742.0,,,8983.0,http://dx.doi.org/10.1021/ci020280x,198.0,probenecid,CCCN(CCC)S(=O)(=O)c1ccc(cc1)C(O)=O,Bergstrom C. A. S.; Norinder U.; Luthman K.; Artursson P. Molecular Descriptors Influencing Melting Point and Their Role in Classification of Solid Drugs. J. Chem. Inf. Comput. Sci.; (Article); 2003; 43(4); 1177-1429
24557,89893.0,,,24558.0,http://www.srcinc.com/what-we-do/product.aspx?id=133,47.0,2-methyl-5-ethoxyaniline,Nc1cc(OC)ccc1C,PHYSPROP
22612,35891.0,,,22613.0,http://www.srcinc.com/what-we-do/product.aspx?id=133,85.0,bifenox,Clc2cc(Cl)ccc2Oc1cc(C(=O)OC)c(cc1)[N+]([O-])=O,PHYSPROP
26235,10443828.0,,,26236.0,http://www.srcinc.com/what-we-do/product.aspx?id=133,194.0,"2h-benzotriazole, 2-cyclopentyl-5-[[(4-nitrophen",[O-][N+](=O)c1ccc(cc1)S(=O)(=O)Nc2ccc3nn(nc3c2)C4CCCC4,PHYSPROP
28034,10771217.0,,,28035.0,http://www.cdc.gov/niosh/ipcsneng/neng0868.html,13.5,dichloroacetic acid,ClC(Cl)C(O)=O,NIOSH
25789,4576037.0,,,25790.0,http://www.srcinc.com/what-we-do/product.aspx?id=133,-14.0,"1,2-diiodoethene (cis)",IC=C/I,PHYSPROP
19852,9697.0,,,19853.0,http://www.srcinc.com/what-we-do/product.aspx?id=133,156.5,ketobemidone,O=C(CC)C1(CCN(C)CC1)c2cccc(O)c2,PHYSPROP
12771,67282.0,,,12772.0,http://dx.doi.org/10.1021/ci0500132,195.0,"3,4-dimethoxy-5-hydroxybenzoic acid",O=C(O)c1cc(O)c(OC)c(OC)c1,Karthikeyan M.; Glen R.C.; Bender A. General melting point prediction based on a diverse compound dataset and artificial neural networks. J. Chem. Inf. Model.; 2005; 45(3); 581-4354
23334,62291.0,,,23335.0,http://www.srcinc.com/what-we-do/product.aspx?id=133,141.5,"2,6-dinitroaniline",O=[N+]([O-])c1cccc([N+]([O-])=O)c1N,PHYSPROP
24138,72411.0,,,24139.0,http://www.srcinc.com/what-we-do/product.aspx?id=133,10.0,6-dodecanone,CCCCCCC(=O)CCCCC,PHYSPROP
8472,69970.0,,,8473.0,http://www.alfa.com/en/GP100W.pgm?DSSTK=A13009,115.0,tetrabromothiophene,c1(c(c(sc1Br)Br)Br)Br,Alfa Aesar
19374,11169.0,,,19375.0,http://www.srcinc.com/what-we-do/product.aspx?id=133,38.0,"methane, dibromodichloro-",BrC(Br)(Cl)Cl,PHYSPROP
2517,80072.0,,,2518.0,http://www.alfa.com/en/GP100W.pgm?DSSTK=L17148,87.0,2-cyano-4-methylpyridine,Cc1ccnc(c1)C#N,Alfa Aesar
10783,2034185.0,,,10784.0,http://dx.doi.org/10.1021/ci0500132,104.0,"4,5-dimethyl-3-phenyl-1H-pyrazole",N=1NC(C)=C(C)C=1c1ccccc1,Karthikeyan M.; Glen R.C.; Bender A. General melting point prediction based on a diverse compound dataset and artificial neural networks. J. Chem. Inf. Model.; 2005; 45(3); 581-2366
9388,4904315.0,,,9389.0,http://dx.doi.org/10.1021/ci0500132,89.0,"(5E)-5-[(4-chlorophenyl)methylidene]-3-[(diethylamino)methyl]-2-thioxo-1,3-thiazolidin-4-one",Clc1ccc(cc1)C=C1SC(=S)N(CN(CC)CC)C1=O,Karthikeyan M.; Glen R.C.; Bender A. General melting point prediction based on a diverse compound dataset and artificial neural networks. J. Chem. Inf. Model.; 2005; 45(3); 581-971
13256,9233.0,,,13257.0,http://www.amazon.com/dp/B002IYRJWI,-104.0,diethyl_sulfide,CCSCC,American Petroleum Institute. Research Project 44; Selected Values of Properties of Hydrocarbons and Related Compounds. Texas A & M University; College Station; TX; 1973.
6502,2016462.0,,,6503.0,http://www.alfa.com/en/GP100W.pgm?DSSTK=B22506,78.0,benzyloxycarbonyl-alpha-phosphonoglycine trimethyl ester,COC(=O)C(NC(=O)OCc1ccccc1)P(=O)(OC)OC,Alfa Aesar
2076,2062811.0,,,2077.0,http://www.alfa.com/en/GP100W.pgm?DSSTK=H25880,119.0,2-benzyloxy-5-fluorobenzeneboronic acid,B(c1cc(ccc1OCc2ccccc2)F)(O)O,Alfa Aesar
11753,2030495.0,,,11754.0,http://dx.doi.org/10.1021/ci0500132,213.0,"benzene-1,4-diyldiethane-2,1-diyl bis(phenylcarbamate)",O=C(OCCc1ccc(cc1)CCOC(=O)Nc1ccccc1)Nc1ccccc1,Karthikeyan M.; Glen R.C.; Bender A. General melting point prediction based on a diverse compound dataset and artificial neural networks. J. Chem. Inf. Model.; 2005; 45(3); 581-3336
25108,454272.0,,,25109.0,http://www.srcinc.com/what-we-do/product.aspx?id=133,-116.7,2-methyl-3-hexyne,CCC#CC(C)C,PHYSPROP
1701,3509886.0,,,1702.0,http://www.alfa.com/en/GP100W.pgm?DSSTK=L18744,44.0,"2,6-dibromo-4-fluorophenyl isocyanate",c1c(cc(c(c1Br)N=C=O)Br)F,Alfa Aesar
1692,28738.0,,,1693.0,http://www.alfa.com/en/GP100W.pgm?DSSTK=A15649,302.0,"2,6-diaminopurine",c1[nH]c2c(n1)c(nc(n2)N)N,Alfa Aesar
22021,2849.0,,,22022.0,http://www.srcinc.com/what-we-do/product.aspx?id=133,175.5,di(p-aminophenyl)sulfone,Nc1ccc(cc1)S(=O)(=O)c2ccc(N)cc2,PHYSPROP